124
Lattice="100.0 0.0 0.0 0.0 100.0 0.0 0.0 0.0 100.0" Properties=species:S:1:pos:R:3:forces:R:3 config_type=reactants_in_water energy=-82336.73097248 pbc="T T T"
C        5.65311000       7.12320000       6.75968000       0.71918000      -0.78181000       0.82315000
C        4.94359000       6.08433000       7.53797000      -1.78066000      -0.25002000       1.75221000
C        5.81180000       5.06015000       7.83356000       0.71169000       0.37101000      -0.83904000
H        4.02817000       6.29903000       8.14557000       1.00989000      -0.26451000      -0.80185000
C        6.97737000       5.26135000       7.01582000      -0.37630000      -0.67931000       0.20065000
H        5.62276000       4.17339000       8.43108000      -0.01347000       0.39174000       0.01018000
C        6.76223000       6.31877000       6.17106000      -0.05142000       0.32488000       0.27511000
H        7.78271000       4.53886000       7.00519000       0.01980000       0.16842000      -0.27404000
H        7.29538000       6.61890000       5.28772000       0.33561000       0.09583000       0.35471000
H        6.07618000       7.73625000       7.54985000       0.41978000       0.37724000       0.12082000
H        5.09405000       7.80081000       6.19516000      -0.66981000       0.62775000      -1.20638000
C        5.05218000       5.28735000       4.81129000      -0.13121000      -0.25390000      -0.08657000
C        3.98781000       5.32481000       5.65407000      -0.29727000      -0.99663000       0.62478000
H        3.31524000       6.18793000       5.66884000       0.09394000      -0.61357000      -0.10976000
H        3.67740000       4.35908000       6.12194000       0.12667000       1.27973000      -0.27870000
C        5.88319000       4.06161000       4.75531000      -1.17578000      -0.67063000      -0.25967000
H        5.14007000       6.02263000       3.98618000       0.49889000      -0.38682000       0.96419000
O        5.84002000       3.09633000       5.51440000       0.02118000       1.43854000      -0.43436000
C        6.74004000       4.06112000       3.53229000       0.61688000       0.12106000       1.07339000
H        7.53764000       4.76159000       3.77330000       0.19770000       0.23684000      -0.44215000
H        6.14333000       4.40404000       2.71365000      -0.20263000       0.13686000      -0.65996000
H        7.22822000       3.11562000       3.38539000      -0.04728000      -0.31961000      -0.23462000
O        3.21164000       5.34262000       2.56186000      -0.35146000       0.66441000      -0.75446000
H        3.14090000       6.00311000       3.22005000      -0.41255000       1.40765000       0.75735000
H        3.92494000       4.84821000       2.92336000       0.43112000      -1.19017000       0.03776000
O        1.37707000       8.13756000       7.14243000       1.47836000       1.42665000       0.74168000
H        1.73549000       7.63447000       6.44353000       0.82827000      -0.85855000      -1.19185000
H        0.50248000       7.84468000       7.19840000      -2.14506000      -0.58091000       0.40548000
O        8.06321000       4.07855000       0.88490000      -0.08978000       1.81424000      -1.31261000
H        7.93682000       3.18270000       1.08801000      -0.25565000      -1.91089000       0.44268000
H        7.74383000       4.58142000       1.62367000      -0.09887000       0.22550000       0.55441000
O        6.91466000       1.42510000       7.73654000      -0.02018000      -1.17379000      -0.24229000
H        7.15914000       0.91544000       6.94046000      -0.31139000       0.42108000       0.43480000
H        7.40234000       2.22632000       7.61044000       0.36893000       0.85077000      -0.14313000
O        2.72676000       8.28994000       2.13734000      -0.74581000       0.05181000       0.57220000
H        2.64956000       8.93547000       1.43777000       0.17075000       0.24150000      -0.32738000
H        1.88730000       8.40145000       2.61994000       0.53909000      -0.21057000      -0.14146000
O        6.16376000       5.57788000      10.90845000       0.01736000      -0.90713000       0.38039000
H        6.13655000       6.51712000      10.97694000      -0.01745000       1.04012000      -0.18097000
H        6.36952000       5.36620000       9.99954000       0.06480000       0.07536000      -0.27319000
O        2.95887000       3.35233000       1.40022000       0.91246000      -0.49240000      -1.87203000
H        3.09289000       3.52946000       0.43371000      -0.23590000      -0.09742000       1.37109000
H        2.74892000       2.41578000       1.39590000      -0.51635000      -0.08722000      -0.03986000
O        4.80086000       0.95934000       4.30654000      -0.43473000      -0.88201000      -1.44193000
H        4.82622000       0.67625000       3.33767000       0.11348000       0.17577000       1.80243000
H        4.50866000       0.18047000       4.79285000       0.23136000      -0.09980000      -0.00035000
O        9.55320000       2.92680000       3.63310000       0.71137000       1.10748000      -0.92936000
H        9.75062000       3.16835000       4.53446000       0.27010000       0.26159000       0.33735000
H       10.03047000       3.61188000       3.11028000      -0.49746000      -0.71561000       0.15382000
O        1.71058000       4.23327000       8.37141000      -0.10656000       0.95334000      -0.59893000
H        1.48712000       3.34097000       8.15556000      -0.25183000      -0.72350000      -0.19863000
H        2.48020000       4.16839000       8.93168000       0.30419000       0.05796000       0.39559000
O        2.25819000       1.53694000       5.20671000       1.36338000      -0.27946000       0.36819000
H        2.52163000       1.86685000       6.07857000      -0.09286000      -0.07665000      -0.33310000
H        3.13448000       1.44016000       4.72822000      -1.10269000       0.48811000       0.54484000
O       10.67816000       4.10925000       0.63660000      -1.55268000      -0.23202000      -0.31882000
H        9.73372000       4.32352000       0.37745000       1.55847000      -0.24935000       0.64779000
H       11.17826000       4.91160000       0.62166000       0.32644000       0.68554000      -0.10653000
O        0.70477000       2.01789000       3.14350000       0.82565000      -1.60004000      -0.23713000
H        0.85731000       1.82728000       4.08981000      -0.13759000       0.50731000      -0.36698000
H        1.33313000       1.34196000       2.77722000      -0.91157000       1.05658000       0.19379000
O        9.12850000       8.69288000       5.67295000       0.17710000       0.94696000       1.24368000
H        8.77035000       7.83748000       5.87256000      -0.21685000      -0.54894000       0.47008000
H        9.45413000       8.66295000       4.79427000       0.56303000       0.10283000      -1.20588000
O       -0.07784000       6.46251000       1.13743000       0.48596000       0.22889000       0.06166000
H       -0.22878000       7.40541000       1.04034000      -0.12671000       0.05375000      -0.05255000
H        0.88537000       6.38093000       1.05850000      -0.21470000      -0.24679000       0.20479000
O        5.74149000       1.04780000       1.77500000       0.90542000      -0.60378000       0.05084000
H        6.14234000       1.65933000       2.39741000       0.12365000       0.15728000       0.01537000
H        4.88413000       1.40480000       1.61169000      -0.99775000       0.83514000      -0.54198000
O        9.42416000       7.57621000      10.12906000       0.70484000       0.16370000      -0.21328000
H        9.97494000       7.91109000      10.84983000      -0.20006000      -0.03738000      -0.14790000
H        9.90112000       7.86017000       9.32931000      -0.38417000      -0.12142000       0.39670000
O        4.48377000       2.09378000       9.20928000       1.81340000       0.53093000      -1.09732000
H        5.39842000       1.98100000       8.77077000      -1.83584000       0.11366000       0.70905000
H        4.22541000       1.19619000       9.35340000      -0.19674000      -0.87753000       0.24008000
O        3.48145000       8.49359000       9.24464000       0.16908000      -0.87723000       0.71100000
H        2.86127000       8.58139000       8.52253000      -0.47892000      -0.04821000      -0.27750000
H        3.14211000       7.72114000       9.74297000       0.15055000       0.61797000      -0.34216000
O        7.43555000       7.08546000       0.79609000       0.76101000      -0.31995000       0.62796000
H        6.75968000       7.62114000       0.40776000      -0.60034000       0.18440000      -0.49861000
H        7.64730000       6.35645000       0.20664000      -0.19816000       0.04628000      -0.19970000
O        9.00003000       1.35474000       9.91995000       0.62177000      -1.02464000      -0.12921000
H        8.72529000       2.25166000       9.87507000      -0.55395000       1.45575000       0.57795000
H        8.98434000       1.13993000       8.98796000      -0.04803000      -0.46763000      -0.22824000
O        8.72108000       4.20693000      10.70690000      -0.91767000       0.29837000       0.28608000
H        9.64388000       4.21040000      10.52507000       1.15699000       0.01370000      -0.16083000
H        8.53398000       5.07636000      11.09149000      -0.25745000      -0.31523000      -0.21103000
O        8.58568000       1.10900000       5.16369000      -0.02418000      -0.04093000       0.77725000
H        8.12990000       0.37405000       4.76787000      -0.14709000      -0.45301000      -0.25021000
H        8.22320000       1.87557000       4.72044000      -0.19619000       0.11923000      -0.31806000
O        1.70361000       3.00852000      10.96880000      -1.81355000      -0.91136000       0.64508000
H        2.23591000       2.51561000      10.35445000       0.61551000      -0.33584000      -0.25596000
H        0.90641000       2.42521000      11.11048000       1.33902000       1.00881000      -0.14701000
O        0.89975000       6.62176000       9.96994000      -0.40057000      -0.06077000      -0.93332000
H        0.64208000       6.08904000       9.17169000       0.38723000       0.33213000       1.51520000
H        0.35944000       6.37140000      10.73145000       0.12302000      -0.32311000      -0.55754000
O        9.13525000       6.99162000       3.28979000       0.93427000       0.25903000       3.52592000
H        8.87089000       7.08173000       4.28369000       0.76219000      -0.71450000      -2.97659000
H        8.32776000       6.97217000       2.83218000      -1.81520000       0.15856000      -1.26636000
O        6.65428000       9.54290000       4.62713000       0.40364000      -0.24144000      -1.79564000
H        5.88293000       9.66035000       4.02929000       0.73039000      -0.00855000       0.66546000
H        7.43139000       9.49177000       4.00930000      -1.13384000       0.19533000       0.95988000
O        1.88461000       0.99442000       0.57185000       0.36901000      -0.45562000       0.06037000
H        2.26881000       0.45993000      -0.13461000      -0.60043000       0.07602000       0.15974000
H        0.92274000       1.02448000       0.52072000       0.15669000      -0.12378000      -0.25105000
O        5.10435000      10.20578000       6.78662000       1.04371000       0.68342000       0.67400000
H        4.24108000       9.89035000       6.99109000      -1.03827000      -0.22104000       0.39839000
H        5.46147000      10.48928000       7.65629000      -0.39953000      -0.16771000      -0.93544000
O        4.14449000      11.17094000       9.95297000      -2.06263000      -0.37208000       0.14276000
H        3.24696000      10.71536000      10.06655000       1.49367000       1.10596000      -0.11341000
H        4.67233000      10.40505000       9.78073000       0.60681000      -0.71265000      -0.02775000
O        9.92009000       9.68898000       1.27382000      -0.94975000       0.35869000      -0.72438000
H        9.10813000       9.37414000       0.82471000       0.72110000       0.27106000       0.43493000
H       10.37600000       8.88505000       1.48004000       0.40628000      -0.70560000       0.29255000
O        9.81035000       5.94677000       5.91805000       0.90717000       0.11527000       0.10117000
H       10.64071000       6.45621000       5.79706000      -0.75090000      -0.62659000       0.29821000
H        9.88399000       5.45897000       6.75381000       0.07380000       0.17399000      -0.31935000
O       10.03380000       2.77821000       7.24474000      -0.44703000       0.22785000      -0.34921000
H        9.70693000       2.40356000       6.41067000       0.23396000      -0.34827000       0.51082000
H       10.82843000       2.28897000       7.46792000       0.00227000      -0.14216000       0.00692000
O        1.12909000      10.29296000      10.34578000      -0.55926000      -0.33030000      -1.04762000
H        0.74456000      10.55666000       9.47787000       0.44305000      -0.23398000       1.00124000
H        1.01372000       9.32312000      10.35887000       0.20102000       0.52785000      -0.00557000
22
Lattice="100.0 0.0 0.0 0.0 100.0 0.0 0.0 0.0 100.0" Properties=species:S:1:pos:R:3:forces:R:3 config_type=vacuum energy=-11580.59345095 pbc="T T T"
C       -0.05261000       1.81093000       0.86675000      -2.63016000       0.37585000       0.94912000
C       -0.90184000       0.79822000       1.69188000       2.37013000       0.11549000       0.19667000
C        0.05222000      -0.15444000       2.12334000      -1.74447000      -0.06955000      -0.62859000
H       -1.86339000       0.99107000       2.11250000      -0.11172000       0.27945000       0.59923000
C        1.18761000      -0.08520000       1.29218000       0.07933000       0.26665000      -0.14430000
H       -0.22671000      -0.99990000       2.74115000       0.27141000       0.15650000       0.10486000
C        1.00822000       0.96915000       0.43389000       1.91774000      -1.18491000      -0.64666000
H        1.96852000      -0.82403000       1.19638000      -0.07383000       0.01012000       0.22337000
H        1.64035000       1.28438000      -0.36579000       0.65574000      -0.00832000      -0.18302000
H        0.34688000       2.61874000       1.48426000      -0.14261000      -0.02916000       0.26199000
H       -0.59852000       2.23787000       0.04243000      -0.17047000       0.46819000      -0.06241000
C       -0.68868000      -0.06379000      -0.94733000      -0.59049000      -0.06373000       0.11828000
C       -1.74958000      -0.05101000      -0.05806000       0.58500000      -0.10705000      -0.14496000
H       -2.35083000       0.83771000       0.02935000      -0.45925000      -0.22782000      -0.50930000
H       -2.15429000      -0.99154000       0.34007000       0.38861000       0.57595000      -0.17137000
C        0.04851000      -1.27581000      -1.16641000       0.16455000      -3.32564000       1.09759000
H       -0.46765000       0.74192000      -1.61433000      -0.09226000       0.43175000      -0.17414000
O       -0.10268000      -2.26903000      -0.42164000      -0.10800000       1.59027000      -0.69195000
C        1.02504000      -1.45122000      -2.30968000       0.46701000       0.98318000       0.89254000
H        1.80673000      -0.66580000      -2.20736000      -0.31707000      -0.54823000      -0.27088000
H        0.48981000      -1.28591000      -3.22199000      -0.18865000       0.14826000      -0.74291000
H        1.46174000      -2.45768000      -2.26616000      -0.16328000       0.49503000      -0.01681000
124
Lattice="100.0 0.0 0.0 0.0 100.0 0.0 0.0 0.0 100.0" Properties=species:S:1:pos:R:3:forces:R:3 config_type=reactants_in_water energy=-82337.12237592 pbc="T T T"
C        5.64629000       7.23775000       6.65136000       0.74193000       0.20319000       0.08621000
C        4.80922000       6.24456000       7.39897000      -0.90046000       0.75220000       0.47963000
C        5.63443000       5.21005000       7.80900000       0.37985000       0.67649000      -0.42233000
H        3.86224000       6.59050000       7.87352000       1.12516000      -0.95359000      -0.64649000
C        6.86762000       5.33025000       7.11069000       0.15022000       0.27894000       0.06765000
H        5.32288000       4.36785000       8.38780000       0.08836000      -0.39766000       0.26802000
C        6.84641000       6.43204000       6.26198000      -1.05029000      -1.04314000       0.83600000
H        7.67542000       4.62202000       7.24232000      -0.09045000      -0.10341000      -0.25362000
H        7.59321000       6.75358000       5.55421000      -0.05881000       0.02179000       0.26027000
H        5.97656000       7.99856000       7.36942000      -0.05048000       0.01423000      -0.18487000
H        5.17854000       7.71341000       5.80956000      -0.11895000       0.43285000       0.06665000
C        4.97258000       5.38400000       4.87023000       0.52358000      -0.44822000      -0.99755000
C        3.90254000       5.51048000       5.73024000      -0.30596000      -0.64586000      -0.48751000
H        3.16255000       6.33006000       5.53328000       0.84430000      -0.89733000       0.54477000
H        3.52417000       4.57871000       6.18642000       0.01333000       0.81088000      -0.21823000
C        5.76162000       4.12742000       4.71137000       0.09714000       1.49010000      -0.04383000
H        5.16864000       6.14115000       4.07789000      -0.22581000      -0.72347000       0.85953000
O        5.77449000       3.16558000       5.46964000      -0.10157000       0.56489000      -0.41630000
C        6.62846000       4.17763000       3.45301000       0.15995000      -0.24541000       0.13138000
H        7.51224000       4.83743000       3.47850000      -0.42714000      -0.23714000       0.60198000
H        6.03763000       4.53911000       2.61016000      -0.22524000      -0.19585000       0.16033000
H        7.00237000       3.17419000       3.24916000      -0.11395000       0.05942000      -0.13493000
O        3.17887000       5.39372000       2.72048000       0.16030000       0.93763000      -0.94287000
H        2.65727000       5.88511000       3.32977000      -0.54449000       0.70708000       0.53200000
H        3.49661000       4.66417000       3.22867000       0.03417000      -0.85836000       0.10036000
O        1.22004000       7.97123000       7.20626000       0.04372000       0.13715000       0.39603000
H        1.64663000       8.15338000       6.37919000       0.47493000       0.12626000      -0.61101000
H        0.31893000       7.78699000       6.94619000      -0.37994000      -0.17023000       0.14996000
O        7.85688000       4.07097000       0.90706000      -0.13205000      -0.50341000      -1.59698000
H        8.41741000       3.50431000       1.42136000       0.57804000      -0.59310000       0.62695000
H        7.62733000       4.76323000       1.49791000      -0.36303000       0.86391000       0.84093000
O        6.78301000       1.33466000       7.83954000       1.55796000       0.42099000      -0.34921000
H        6.68787000       1.47554000       6.87959000       0.12339000       0.01330000       0.56318000
H        7.70959000       1.61686000       8.07311000      -1.40633000      -0.69600000      -0.24316000
O        2.68121000       8.27972000       2.18564000      -0.16023000      -0.88075000       0.56243000
H        3.17011000       8.89553000       1.68054000       1.20777000       0.68267000      -1.06052000
H        1.97779000       8.83600000       2.46833000      -1.16790000       0.56998000       0.67494000
O        6.34844000       5.54488000      11.03670000       1.09651000      -0.38750000       1.28023000
H        6.32028000       6.48735000      11.10693000       0.13286000       0.87427000       0.06965000
H        5.71042000       5.33055000      10.39878000      -1.28895000      -0.53562000      -1.43630000
O        3.27786000       3.23482000       1.62835000       0.43846000      -1.80536000       1.74105000
H        3.53673000       3.44570000       0.75857000       0.31722000       0.32940000      -1.57537000
H        3.35808000       2.26267000       1.70267000      -0.67947000       0.85723000      -0.50888000
O        4.57987000       0.99777000       4.26338000       2.51258000      -0.18119000      -0.95095000
H        5.48687000       1.02846000       3.81433000      -1.72364000       0.39037000       0.73967000
H        4.68633000       0.17157000       4.71834000      -0.26221000      -0.76243000       0.68748000
O        9.78197000       3.12329000       3.42519000      -1.77697000      -0.72076000      -0.16803000
H        9.70333000       3.69095000       4.17481000      -0.02609000       0.86134000       0.61476000
H       10.67152000       3.15124000       3.15286000       1.59601000       0.18748000      -0.76198000
O        1.81307000       4.22248000       8.41624000      -0.65190000      -0.74215000      -0.04204000
H        1.35488000       3.40332000       8.72115000       0.45047000       0.97750000      -0.15035000
H        2.70450000       4.09687000       8.74856000       0.23184000      -0.14178000      -0.03002000
O        2.21545000       1.43532000       5.15917000      -0.39940000      -0.06272000       0.27791000
H        2.54792000       2.06473000       5.80938000       0.21458000      -0.20051000      -0.14349000
H        2.97980000       1.11683000       4.64868000      -0.27034000       0.62693000       0.34753000
O       10.60841000       4.04309000       0.56519000       0.44808000      -1.03065000       0.28047000
H        9.74032000       4.31244000       0.30885000      -1.04950000       0.23174000      -0.27779000
H       11.12633000       4.82549000       0.51656000       0.76964000       0.90922000      -0.01763000
O        0.74352000       2.21736000       3.02759000       0.04069000       0.07969000       0.69795000
H        1.23875000       2.20748000       3.88723000      -0.60947000      -0.20588000      -0.84385000
H        1.07825000       1.43974000       2.58179000       0.16355000      -0.04129000       0.04732000
O        9.39968000       8.77824000       5.98234000      -0.43649000       0.87532000       0.71253000
H        9.16919000       7.86310000       5.92599000       0.02216000      -0.85491000      -0.04779000
H        9.99959000       8.89842000       5.26504000       0.67369000       0.08312000      -0.71276000
O       -0.03784000       6.67436000       1.18810000       0.35199000       0.57891000       1.37900000
H        0.54795000       7.16074000       1.81680000      -0.58075000      -0.89426000      -0.85549000
H        0.25124000       6.98513000       0.33925000       0.25280000       0.13770000      -0.62400000
O        5.61078000       0.85705000       1.89305000      -0.33941000       0.28420000       0.05910000
H        5.87148000       1.61644000       1.38232000       0.70626000       0.37892000      -0.64095000
H        4.80437000       1.22109000       2.28967000       0.00891000      -0.62697000      -0.12125000
O        9.58989000       7.49754000      10.13948000       0.47180000       1.34118000      -0.27590000
H       10.07521000       8.17086000      10.66475000      -0.45060000      -0.82823000      -0.32857000
H        9.41521000       7.98971000       9.31041000       0.03785000      -0.49179000       0.53257000
O        4.58446000       2.11182000       8.93628000      -0.05306000       0.88366000       0.54646000
H        5.50146000       1.82845000       8.74388000       0.11147000       0.14980000      -0.30053000
H        4.10173000       1.30255000       8.91779000      -0.66117000      -0.77597000      -0.01078000
O        3.50709000       8.37250000       9.37395000       0.21184000       0.91993000      -1.89358000
H        3.53789000       8.88276000       8.50720000      -0.05800000      -0.70010000       1.73456000
H        3.25249000       7.51275000       9.01775000      -0.34470000       0.11058000       0.66461000
O        7.41093000       6.84329000       1.07769000       0.91625000      -1.00867000      -1.20102000
H        6.64482000       7.30763000       0.77222000      -0.70698000       0.32966000      -0.30228000
H        7.73058000       6.29515000       0.31325000      -0.48823000       0.79372000       0.94325000
O        9.01845000       1.18950000       9.82094000       1.03405000       1.42232000      -1.33365000
H        9.03571000       1.94141000      10.44089000      -0.17164000      -0.18846000      -0.13196000
H        9.49883000       1.60214000       9.04429000      -0.63147000      -0.77922000       1.15561000
O        8.80131000       4.09027000      10.81178000      -0.14487000      -1.26294000       0.33048000
H        9.09960000       4.83348000      10.32132000       0.65587000       1.02986000      -0.61668000
H        7.90516000       4.34745000      11.02950000      -0.49181000       0.14642000       0.21202000
O        8.34530000       1.28843000       5.28901000      -0.58667000       1.02559000       0.02633000
H        8.34451000       0.64142000       4.58917000       0.17517000      -0.24249000      -0.37124000
H        7.89601000       2.06717000       4.90237000       0.08880000      -0.63990000       0.18905000
O        1.55477000       2.76011000      10.73126000       1.83665000      -0.02740000       0.23544000
H        2.53172000       2.80452000      10.90918000      -1.20434000      -0.00653000      -0.55686000
H        1.26253000       2.23162000      11.46513000      -0.54604000      -0.38202000       0.38364000
O        0.80199000       6.69655000      10.32335000      -0.27498000       1.18201000       0.43451000
H        0.85376000       6.00744000       9.68256000       0.22805000      -1.00356000      -0.87315000
H        1.34180000       6.42107000      11.05597000       0.24768000      -0.27143000       0.33805000
O        9.12247000       6.80635000       3.07813000       3.24972000       0.00485000      -0.22807000
H        8.40044000       6.75510000       3.62903000      -2.33826000      -0.28806000       2.17766000
H        8.73412000       7.01656000       2.25819000      -0.60680000       0.42967000      -1.69388000
O        6.71511000       9.62342000       4.47016000       1.75232000      -0.70544000      -0.40668000
H        5.92007000       9.96256000       4.07419000      -0.15416000       0.15252000      -0.53870000
H        7.42408000       9.42208000       3.80219000      -1.49725000       0.52586000       0.86894000
O        2.01195000       0.97003000       0.46144000      -1.29322000      -0.52288000      -0.32011000
H        2.04545000       0.69355000      -0.46748000       0.21563000       0.06750000       0.37286000
H        1.05206000       0.88151000       0.66630000       1.03005000       0.34084000      -0.14370000
O        5.01843000      10.11078000       6.67917000      -0.91286000      -0.37799000      -0.39440000
H        4.10175000      10.33827000       6.84012000      -0.28115000       0.22183000      -0.03670000
H        5.47294000      10.59476000       7.34930000       0.74517000       0.62462000       0.62767000
O        4.26995000      11.09712000      10.13464000      -1.57621000       1.08840000       0.22472000
H        3.33787000      10.80025000      10.25537000       0.69794000       0.47161000      -0.09502000
H        4.68504000      10.31690000       9.83766000       0.86500000      -1.47734000      -0.23616000
O       10.03527000       9.58584000       1.00084000       0.65413000      -0.01619000       0.79905000
H        9.09194000       9.57351000       0.90754000      -0.72877000      -0.01943000      -0.17444000
H       10.16727000       9.58370000       1.96575000       0.03902000      -0.06876000      -0.59804000
O        9.96243000       5.95197000       5.75941000       0.72757000      -0.40867000      -0.55713000
H       10.89107000       5.66113000       5.71876000      -0.54644000       0.35006000      -0.14920000
H        9.72209000       5.79221000       6.66349000      -0.30997000      -0.27334000       0.82035000
O        9.98430000       2.76266000       7.06803000      -2.26969000       0.43679000      -0.57043000
H        9.57805000       2.70838000       6.16851000       0.62777000      -0.48897000       1.14721000
H       10.90799000       2.77917000       6.95908000       1.70584000      -0.10037000      -0.28792000
O        1.06166000      10.18904000      10.23854000      -0.34918000      -0.55683000      -0.47824000
H        0.24260000      10.18940000       9.71334000       0.51752000       0.18462000       0.28978000
H        1.28240000       9.24052000      10.26353000       0.08881000       0.26538000      -0.03611000
124
Lattice="100.0 0.0 0.0 0.0 100.0 0.0 0.0 0.0 100.0" Properties=species:S:1:pos:R:3:forces:R:3 config_type=reactants_in_water energy=-82337.14349926 pbc="T T T"
C        5.72967000       7.08697000       6.63715000      -0.38342000       0.00504000      -0.92680000
C        4.88467000       6.12347000       7.40930000       0.45335000      -1.14483000       0.45314000
C        5.76960000       5.10560000       7.83158000      -0.40157000      -1.20850000      -0.20548000
H        4.02898000       6.32676000       8.01835000      -0.32895000       0.39703000      -0.05376000
C        6.90776000       5.12816000       7.04208000       0.37318000       0.80464000      -1.12175000
H        5.53576000       4.19342000       8.42474000      -0.04171000       1.33847000      -0.30001000
C        6.80896000       6.15487000       6.07875000      -1.57202000       0.58872000       1.29888000
H        7.61357000       4.32790000       6.99454000       0.36667000      -0.33808000       0.22129000
H        7.49225000       6.56307000       5.35450000       0.26228000      -0.38308000       0.11159000