22
Lattice="100.0 0.0 0.0 0.0 100.0 0.0 0.0 0.0 100.0" Properties=species:S:1:pos:R:3:forces:R:3 energy=-11581.14575027 pbc="T T T"
C       -2.48552000       4.22047000      -0.76387000       0.06322000      -0.01114000       0.00810000
C       -3.29707000       3.20801000       0.00561000       0.01195000       0.00040000      -0.00465000
C       -2.40613000       2.20188000       0.39280000      -0.01916000      -0.00868000       0.01397000
H       -4.17194000       3.47732000       0.57923000       0.00719000       0.01741000      -0.01719000
C       -1.25422000       2.28074000      -0.39134000       0.03300000      -0.00151000       0.04982000
H       -2.62972000       1.40772000       1.08791000      -0.03455000       0.00787000      -0.01820000
C       -1.38578000       3.33888000      -1.27293000       0.05739000       0.06227000      -0.02228000
H       -0.46531000       1.54577000      -0.40594000      -0.01517000       0.00166000       0.00243000
H       -0.63060000       3.66682000      -1.97069000      -0.00073000       0.03329000      -0.00537000
H       -2.05245000       4.92741000      -0.04650000       0.04648000      -0.01307000       0.00126000
H       -3.02666000       4.78296000      -1.51796000       0.00491000       0.01901000       0.02143000
C       -3.06505000       2.35794000      -2.60938000      -0.02144000       0.01954000      -0.03335000
C       -4.11129000       2.39158000      -1.69753000      -0.00158000       0.03306000       0.02392000
H       -4.87265000       3.15276000      -1.79774000       0.00794000      -0.00193000      -0.01793000
H       -4.44051000       1.44897000      -1.28721000      -0.03047000      -0.00113000       0.01017000
C       -2.34020000       1.10203000      -2.81792000       0.00610000      -0.02845000      -0.00718000
H       -2.93852000       3.14152000      -3.34300000       0.04199000      -0.00830000       0.00437000
O       -2.50386000       0.13974000      -2.08940000      -0.02798000       0.04238000       0.01972000
C       -1.36442000       1.05457000      -3.97141000      -0.05049000       0.05303000       0.00420000
H       -0.69600000       1.91534000      -3.94662000       0.00310000      -0.00918000       0.00939000
H       -1.91362000       1.09471000      -4.91346000      -0.07994000       0.04168000       0.01121000
H       -0.79010000       0.13380000      -3.92977000       0.02577000       0.01660000       0.01419000
