22
Lattice="100.0 0.0 0.0 0.0 100.0 0.0 0.0 0.0 100.0" Properties=species:S:1:pos:R:3:forces:R:3 config_type=vacuum energy=-11580.61566369 pbc="T T T"
C       -0.15065000       1.85981000       0.90229000      -1.04633000       1.22133000       0.73837000
C       -1.05763000       0.70498000       1.48213000      -1.62501000       1.53244000       0.84681000
C       -0.02520000      -0.18896000       1.93000000       2.94252000      -0.40518000       1.86940000
H       -1.93848000       0.81357000       2.19162000       1.53940000       0.71059000      -0.48123000
C        1.07356000      -0.05600000       1.13042000       0.45334000      -2.37255000       4.09869000
H       -0.10862000      -0.58717000       2.95014000       0.35775000      -0.69661000      -0.90020000
C        0.82332000       0.88610000       0.12721000      -4.65530000       1.08833000      -2.24110000
H        2.02055000      -0.56051000       1.25506000      -0.12218000      -0.21185000       0.10955000
H        1.55341000       1.15198000      -0.61934000       0.20831000       0.57060000       0.33583000
H        0.28558000       2.39596000       1.75395000       0.48479000      -0.24895000      -0.28252000
H       -0.76591000       2.62534000       0.38336000       0.54992000      -0.63282000      -0.42775000
C       -0.46105000       0.13301000      -0.64663000       3.02271000      -3.42276000      -2.73734000
C       -1.59307000       0.07494000       0.25574000      -3.22604000       0.64841000      -1.22790000
H       -2.56034000       0.52749000      -0.12579000       1.38693000       0.62788000       0.10374000
H       -2.05301000      -0.86454000       0.43800000       0.61220000      -1.56109000       0.33662000
C        0.11431000      -1.43739000      -1.09510000       0.36864000       5.00511000      -0.26745000
H       -0.60198000       0.60314000      -1.58627000      -0.40072000       0.68669000      -0.78970000
O       -0.05459000      -2.38911000      -0.44296000      -1.04590000      -2.30459000       1.27732000
C        1.12662000      -1.34388000      -2.20344000      -0.46325000       0.33312000       0.24661000
H        1.86999000      -0.62514000      -1.86681000       0.20121000      -0.09544000      -0.09966000
H        0.68688000      -0.95204000      -3.10578000      -0.27589000       0.21226000      -0.34986000
H        1.55562000      -2.30526000      -2.37345000       0.45296000      -0.58244000      -0.21073000
22
Lattice="100.0 0.0 0.0 0.0 100.0 0.0 0.0 0.0 100.0" Properties=species:S:1:pos:R:3:forces:R:3 config_type=vacuum energy=-11582.02301199 pbc="T T T"
C        0.76291000       1.23482000       1.57151000      -1.18925000      -0.38977000      -1.96318000
C       -0.75233000       0.97298000       1.51176000       0.02561000      -0.44324000       0.02374000
C       -0.83834000      -0.42086000       2.06707000       0.46070000      -0.04985000      -0.65272000
H       -1.38292000       1.66863000       1.95672000      -0.99771000       1.30727000       0.90967000
C        0.25355000      -1.04750000       1.62175000      -0.18793000      -0.45538000      -0.23435000
H       -1.75914000      -0.87506000       2.39837000       0.10091000      -0.06817000       0.20698000
C        1.08695000      -0.08690000       0.84203000      -0.74837000       1.28268000      -0.08240000
H        0.33008000      -2.09866000       1.48098000       0.29745000      -0.73573000       0.35845000
H        2.14717000      -0.14887000       0.72776000       0.54348000      -0.99432000      -0.34426000
H        1.05599000       1.32017000       2.57433000       0.83612000      -0.02787000       1.27704000
H        1.17149000       2.01659000       0.93572000      -0.40408000       0.52645000       0.33650000
C        0.24202000       0.24650000      -0.50145000       2.34922000       0.07228000      -1.19252000
C       -1.05851000       0.79349000       0.01161000       0.91724000       2.22010000      -0.47124000
H       -1.08740000       1.82863000      -0.42971000      -0.91289000      -1.04336000       0.27011000
H       -1.85051000       0.13002000      -0.29447000      -0.52321000       0.25813000       0.35937000
C        0.05220000      -0.88966000      -1.46815000      -0.57508000      -0.24041000       0.29682000
H        0.79691000       1.03420000      -1.10911000      -0.40246000      -0.82895000       1.04568000
O       -0.89318000      -1.63558000      -1.34508000      -0.14848000      -0.21306000       0.09848000
C        0.97714000      -1.09060000      -2.61931000       0.05637000       0.06548000      -1.43403000
H        1.12067000      -0.18840000      -3.27739000      -0.13604000      -0.71770000       0.90649000
H        0.53546000      -1.88838000      -3.24064000       0.28791000       0.37679000       0.24664000
H        1.94704000      -1.43583000      -2.27427000       0.24306000       0.07361000       0.11733000
22
Lattice="100.0 0.0 0.0 0.0 100.0 0.0 0.0 0.0 100.0" Properties=species:S:1:pos:R:3:forces:R:3 config_type=vacuum energy=-11580.50706075 pbc="T T T"
C       -0.12027000       1.81047000       0.91412000       1.04000000       0.28650000      -0.24532000
C       -0.89206000       0.76843000       1.69938000      -1.29258000       2.59919000      -1.28884000
C       -0.02689000      -0.18187000       2.04033000       2.77046000      -2.06455000       0.69222000
H       -1.76680000       1.04541000       2.24610000      -0.39222000      -0.06481000       0.25136000
C        1.17559000      -0.06895000       1.27180000      -0.39232000      -2.63767000       1.55436000
H       -0.21927000      -0.99354000       2.71602000      -0.08031000      -0.14998000       0.14579000
C        1.02684000       0.90932000       0.39121000      -1.05061000       3.12887000      -1.03963000
H        1.94542000      -0.83676000       1.21403000      -0.20247000       0.24832000       0.27051000
H        1.75495000       1.27547000      -0.31275000       0.08249000      -0.05243000      -0.09193000
H        0.34274000       2.52730000       1.63299000      -0.23242000      -0.37501000      -0.38800000
H       -0.66613000       2.39513000       0.15352000       0.23679000      -0.42174000       0.43081000
C       -0.62685000      -0.08153000      -0.93939000      -1.77383000       2.28288000       0.33518000
C       -1.68513000       0.02915000      -0.02272000       0.45044000      -3.88874000       0.32414000
H       -2.47933000       0.70491000      -0.13198000      -0.58804000       1.16329000      -0.21485000
H       -2.04879000      -0.97349000       0.41156000       0.63264000       1.66602000      -0.71932000
C        0.05863000      -1.31659000      -1.15100000       0.82171000       1.64956000      -1.60612000
H       -0.53228000       0.73837000      -1.65008000       0.29232000      -0.35687000      -0.02408000
O       -0.08664000      -2.24385000      -0.43952000      -0.64282000      -3.05464000       2.48475000
C        1.01129000      -1.38389000      -2.28811000       1.20377000       1.75377000       0.08405000
H        1.72938000      -0.53146000      -2.27691000      -0.63747000      -0.32875000       0.03059000
H        0.49561000      -1.34496000      -3.20862000      -0.73165000       0.15447000      -1.11505000
H        1.60999000      -2.24709000      -2.27000000       0.52528000      -1.30658000       0.22575000
22
Lattice="100.0 0.0 0.0 0.0 100.0 0.0 0.0 0.0 100.0" Properties=species:S:1:pos:R:3:forces:R:3 config_type=vacuum energy=-11580.90397358 pbc="T T T"
C       -0.24608000       1.77145000       1.00616000      -0.01884000       0.91970000       0.91620000
C       -0.97235000       0.57103000       1.56204000      -1.98276000      -0.45288000       0.40961000
C        0.11999000      -0.29448000       2.03832000      -0.53993000      -0.61341000      -0.79114000
H       -1.85444000       0.68250000       2.26086000       1.13717000       0.10142000      -0.81577000
C        1.20238000      -0.07541000       1.25984000       0.93106000       0.33586000      -0.86774000
H       -0.03142000      -1.13253000       2.69004000       0.03430000      -0.11043000       0.24357000
C        0.85086000       1.01078000       0.36638000       1.89810000      -0.40994000      -2.41073000
H        2.16056000      -0.64734000       1.09838000      -1.41151000       0.56944000       0.64619000
H        1.68949000       1.44981000      -0.29429000      -1.71375000      -0.50367000       1.01834000
H        0.17276000       2.35948000       1.85077000      -0.15223000      -0.17899000      -0.46000000
H       -0.87109000       2.41568000       0.38221000       0.35406000      -0.14356000       0.01167000
C       -0.58811000       0.01764000      -0.91217000       1.91215000       0.69022000      -0.85281000
C       -1.67516000       0.07760000      -0.00583000      -1.47551000      -0.33955000       2.88401000
H       -2.48439000       0.84077000      -0.10467000       0.99580000      -0.50137000      -0.36042000
H       -2.16858000      -0.88799000       0.20142000       0.46669000       0.36405000      -0.18569000
C        0.06789000      -1.27172000      -1.15986000       0.73692000      -1.64517000       1.54616000
H       -0.50253000       0.68986000      -1.75980000      -0.24664000       0.16429000       0.16321000
O        0.00195000      -2.19778000      -0.33466000      -0.42337000       1.15873000      -1.17927000
C        1.01945000      -1.40780000      -2.34900000      -0.98229000      -0.33215000       0.39273000
H        1.92255000      -0.87949000      -2.05288000       0.12692000       0.18993000      -0.32021000
H        0.51628000      -0.94761000      -3.20492000       0.48112000      -0.04216000      -0.10987000
H        1.26192000      -2.47670000      -2.53104000      -0.23680000       0.81328000       0.11882000
22
Lattice="100.0 0.0 0.0 0.0 100.0 0.0 0.0 0.0 100.0" Properties=species:S:1:pos:R:3:forces:R:3 config_type=vacuum energy=-11581.62842744 pbc="T T T"
C       -0.04630000       1.82864000       0.88823000      -0.40108000       0.32644000      -0.30948000
C       -0.97076000       0.84366000       1.65934000      -0.38026000      -0.86260000      -3.00803000
C       -0.02043000      -0.18319000       2.11350000       1.24001000       0.38074000       0.88302000
H       -1.74420000       1.18100000       2.35029000       0.17581000       0.07722000      -0.39190000
C        1.04590000      -0.18553000       1.30420000       1.03366000      -0.36209000       1.26980000
H       -0.07581000      -0.75394000       3.02473000      -0.39152000      -0.27892000      -0.09736000
C        0.86771000       0.78867000       0.25271000      -2.49978000      -0.68116000      -1.11539000
H        1.95486000      -0.76246000       1.42503000      -0.34435000      -0.28661000      -0.04222000
H        1.67564000       1.08810000      -0.37082000       0.54730000       0.26619000      -0.30837000
H        0.51824000       2.50826000       1.52901000      -0.04017000      -0.08918000       0.12496000
H       -0.57528000       2.40104000       0.10225000       0.14002000      -0.08712000       0.61620000
C       -0.43504000      -0.02554000      -0.73537000       2.44727000       1.88663000       1.09431000
C       -1.54808000       0.04672000       0.23008000      -1.59873000       2.30752000       0.22273000
H       -2.39218000       0.60254000      -0.27395000       0.82429000      -0.14315000       0.86684000
H       -1.96292000      -0.88397000       0.46980000      -0.24323000      -1.42579000       0.54464000
C        0.14167000      -1.29351000      -1.15977000      -1.85143000      -2.56871000       1.52421000
H       -0.46828000       0.60971000      -1.60558000      -0.39099000       0.45955000      -0.09232000
O       -0.17314000      -2.35145000      -0.59579000       0.98822000       1.34375000      -0.85894000
C        0.93947000      -1.25179000      -2.38730000       2.23923000      -0.12218000      -0.98592000
H        1.61637000      -0.38622000      -2.45097000      -0.62379000       0.17223000       0.06215000
H        0.27378000      -1.23988000      -3.24278000      -0.17690000       0.05737000      -0.15874000
H        1.65383000      -2.07798000      -2.50867000      -0.66467000      -0.18389000       0.23349000
22
Lattice="100.0 0.0 0.0 0.0 100.0 0.0 0.0 0.0 100.0" Properties=species:S:1:pos:R:3:forces:R:3 config_type=vacuum energy=-11580.39735682 pbc="T T T"
C       -0.14744000       1.72969000       0.82905000       0.66675000       1.23867000       1.39260000
C       -0.86541000       0.80849000       1.82011000       1.22920000      -0.07637000      -1.23575000
C        0.01084000      -0.23738000       2.06583000      -0.71819000       0.08364000       0.41409000
H       -1.75184000       1.05404000       2.38696000       0.07771000       0.03354000      -0.18031000
C        1.13802000      -0.13543000       1.23417000       1.07482000       0.41956000       1.09542000
H       -0.19510000      -1.08340000       2.71399000       0.08555000       0.28544000       0.03157000
C        1.04420000       0.94768000       0.42581000       0.07149000      -0.67155000      -0.97717000
H        2.07166000      -0.65308000       1.38137000      -0.24746000      -0.67084000      -0.26938000
H        1.87629000       1.23497000      -0.23112000      -0.76563000       0.29461000       0.25600000
H        0.44715000       2.47969000       1.37875000      -0.68357000       0.49216000       0.46652000
H       -0.75769000       2.23072000       0.08039000       0.27117000      -0.01138000       0.22011000
C       -0.70772000      -0.04239000      -0.93515000      -0.30616000      -0.48129000      -0.08241000
C       -1.71490000      -0.02155000      -0.00517000      -0.32758000      -1.41192000      -0.92906000
H       -2.47668000       0.69158000      -0.11957000      -0.68430000       1.19541000       0.17303000
H       -2.08462000      -0.92376000       0.48062000       0.52238000       0.05473000      -0.36757000
C        0.05506000      -1.22445000      -1.15995000       0.45285000      -3.65849000       0.85443000
H       -0.44180000       0.71967000      -1.63425000      -0.46572000       0.76127000      -0.09989000
O       -0.10078000      -2.25518000      -0.46124000       0.20617000       1.79640000      -1.00140000
C        1.05420000      -1.32040000      -2.32280000       0.12326000       0.30207000       0.91283000
H        1.68904000      -0.42846000      -2.38692000      -0.21371000      -0.07234000      -0.08634000
H        0.49555000      -1.42884000      -3.24556000      -0.04868000      -0.08301000      -0.21332000
H        1.70026000      -2.19223000      -2.14224000      -0.39239000       0.31602000      -0.18320000
121
Lattice="100.0 0.0 0.0 0.0 100.0 0.0 0.0 0.0 100.0" Properties=species:S:1:pos:R:3:forces:R:3 config_type=reactants_in_water energy=-80255.19690303 pbc="T T T"
C        5.96438000       6.57650000       6.46861000      -0.08258000      -2.27443000       1.31079000
C        4.95983000       5.46888000       7.01146000      -1.80288000       0.56191000      -1.66940000
C        5.76965000       4.38758000       7.57484000       3.50485000       1.95329000      -0.47269000
H        4.06631000       5.77849000       7.53314000       0.03454000       0.29780000       0.27072000
C        6.95959000       4.49811000       6.90589000      -1.09831000      -1.63628000       1.69502000
H        5.64526000       3.74931000       8.41134000      -0.91937000      -0.49514000       0.25523000
C        6.90855000       5.55589000       5.90752000      -1.63836000      -1.58317000      -2.63590000
H        7.62829000       3.66841000       6.89553000       0.95048000      -0.11088000       0.06258000
H        7.75923000       5.78980000       5.31816000       1.00224000       0.60829000       0.14639000
H        6.48111000       7.02466000       7.28738000       0.01154000       0.93803000       0.60704000
H        5.60291000       7.22971000       5.71552000      -0.67732000       0.70596000      -0.28092000
C        5.83971000       4.84925000       4.78669000       0.19796000      -0.60330000       0.72119000
C        4.53908000       4.75140000       5.64355000       0.44598000       0.97827000      -1.25990000
H        3.71258000       5.25760000       5.11804000       0.35188000       0.16583000       0.28884000
H        4.20229000       3.74236000       5.78476000       0.20194000      -0.19134000       0.17498000
C        6.54019000       3.60256000       4.20639000       0.09282000       1.07789000      -0.87946000
H        5.76399000       5.52433000       3.92255000      -0.20297000       0.01485000       0.54150000
O        6.59680000       2.46785000       4.66328000      -0.34028000       1.44021000      -0.35513000
C        7.37668000       4.06117000       2.94094000      -0.28382000      -1.96753000       0.88216000
H        7.69946000       5.08157000       3.06609000       0.19800000       0.21745000       0.06268000
H        6.92535000       3.92808000       1.94899000      -0.49450000      -0.01470000       0.52303000
H        8.20003000       3.36063000       2.96165000       0.54993000       0.20979000      -0.19642000
O        2.04699000       3.04059000       2.81372000      -1.11766000      -1.94952000      -0.19901000
H        2.07539000       2.05597000       2.92691000      -0.16936000       1.15786000      -0.19450000
H        2.89457000       3.37012000       3.04058000       1.22240000       0.43830000       0.39626000
O        2.14587000      10.79465000       9.13691000      -0.45235000       0.04567000       0.47279000
H        1.77411000      11.64216000       8.90413000      -0.92560000       0.75151000       0.65631000
H        2.74852000      10.83942000       8.40859000       1.05998000      -0.84045000      -0.75625000
O        2.76679000       2.36940000       6.34441000       0.88660000      -1.37142000       0.17235000
H        2.25747000       3.00493000       6.82758000      -0.74886000       0.89743000       0.35038000
H        3.26012000       1.86180000       7.01685000      -0.35267000       0.45690000      -0.49251000
O        1.12343000       0.13941000       2.21026000      -0.33494000      -1.16921000      -0.25993000
H        0.20904000      -0.11362000       1.90962000       1.58367000       0.18683000       0.52769000
H        1.67648000      -0.67890000       2.25652000      -1.04038000       0.97674000      -0.15541000
O        9.43192000       2.49862000       4.75673000      -0.73510000      -0.27199000       0.32418000
H        8.54143000       2.15281000       5.05046000       1.52755000       0.40179000      -0.33161000
H       10.16104000       2.18689000       5.31553000      -0.62571000       0.04119000       0.09751000
O        1.83092000       3.10193000      -0.50390000      -0.39752000       1.08306000      -2.01288000
H        2.04734000       2.55628000       0.21665000       0.33065000      -1.26332000       1.30560000
H        1.79004000       2.57108000      -1.31602000       0.11707000       0.11306000       0.72321000
O        1.57235000       7.17757000       5.21920000      -0.32937000      -1.49105000      -2.38159000
H        0.75983000       7.51636000       4.80506000       0.12763000      -0.30653000       0.33852000
H        1.81423000       7.76269000       5.88320000       0.25078000       1.69502000       2.04741000
O       11.34432000       8.03389000       7.27079000       1.01052000       0.16183000      -0.13301000
H       10.59562000       7.72521000       7.77416000       0.05782000      -0.55396000       0.30049000
H       12.11637000       7.45313000       7.43326000      -1.14072000       0.25691000       0.10346000
O        5.30517000       9.78247000      10.05096000      -0.47298000      -0.61445000       1.02909000
H        4.38865000       9.46324000      10.21373000       0.78213000       0.42643000      -0.28019000
H        5.80306000       9.40837000      10.81036000      -0.41764000       0.42594000      -0.84723000
O       10.96686000       5.33099000      12.56265000       0.72694000      -0.72393000      -0.02322000
H       10.86148000       6.22378000      12.22165000       0.31121000       0.06293000      -0.13584000
H       11.90510000       5.03946000      12.47843000      -1.15624000       0.70881000       0.00540000
O        0.76639000       4.37310000       5.43758000      -1.31593000      -2.73348000       0.45966000
H        1.38779000       5.01101000       5.19530000       1.30011000       2.02018000      -0.66207000
H        0.84584000       3.65934000       4.77538000       0.00143000       0.70940000       0.29951000
O        0.74628000       9.29577000       7.27538000       0.10716000       0.19287000      -0.77602000
H        0.66881000       9.45204000       8.24455000       0.61390000       0.63962000      -1.39322000
H        1.09016000      10.06355000       6.74543000      -0.70576000      -0.92779000       1.71553000
O       10.87688000       4.83619000       7.47259000      -1.15723000       0.32197000      -1.51076000
H       10.49870000       5.19058000       6.61061000       0.69433000      -0.58402000       1.71866000
H       10.28886000       4.09480000       7.70097000       0.37464000       0.38728000      -0.06947000
O       10.28824000       6.24127000       4.28803000       0.57046000      -0.91859000      -1.72608000
H       10.54226000       5.28834000       4.34219000      -0.41316000       0.90553000       0.00698000
H       10.48066000       6.42636000       3.32621000      -0.31248000      -0.14176000       1.66211000
O        8.06278000      14.77359000       4.98933000      -1.10089000       0.61290000       0.89853000
H        7.73186000      13.97164000       5.42662000       0.24493000       0.30696000      -0.26638000
H        7.49483000      15.48588000       5.37946000       0.83470000      -0.90379000      -0.59542000
O        0.42128000       5.05136000       1.74581000       0.73104000       0.68405000      -0.24330000
H        0.64319000       4.13228000       1.91063000       0.01882000      -0.09725000       0.10225000
H        1.28866000       5.44600000       1.50335000      -1.13241000      -0.29757000       0.04942000
O        6.28564000       3.31480000      -3.02310000       0.55650000      -0.01270000      -0.16278000
H        6.12374000       2.66598000      -2.32576000       0.45271000       0.23219000      -0.20490000
H        7.25191000       3.40333000      -3.17287000      -1.06772000      -0.36704000       0.47557000
O        8.91216000       8.62304000       0.84496000      -0.22940000      -2.01520000       1.80074000
H        9.55339000       8.82557000       1.54927000      -0.19382000       0.37548000      -0.46919000
H        8.45305000       7.83657000       1.27554000       0.46595000       1.44005000      -1.13157000
O        0.31325000       1.46285000       9.83969000      -1.47005000       0.18118000       1.28881000
H        0.84135000       0.95961000       9.25340000       0.54696000      -0.74512000      -1.10445000
H       -0.49429000       0.92238000       9.98036000       0.86808000       0.57960000      -0.22070000
O       10.72458000       0.87581000       6.89992000       1.37053000      -0.10600000       0.84564000
H       10.16629000       0.46381000       6.27161000      -1.07973000      -0.72157000      -0.91345000
H       11.32942000       0.15278000       7.15107000      -0.26957000       0.70025000       0.04967000
O        7.73445000      11.04948000       0.02220000      -0.74576000      -0.59523000      -0.23858000
H        8.58603000      11.32975000       0.32384000       0.68231000       0.30658000       0.21475000
H        7.70962000      10.10777000       0.27299000       0.09847000       0.60972000      -0.18435000
O        6.43491000       1.54563000       9.02184000       0.50320000       1.25140000      -1.96004000
H        5.85384000       1.12773000       8.33531000       1.04450000       0.82336000       0.77729000
H        6.89572000       2.34742000       8.58133000      -1.20465000      -2.30104000       0.86583000
O        9.96402000       8.59083000      11.06369000      -0.53633000       0.25166000       0.12865000
H        9.12740000       9.05727000      11.25676000       0.80366000      -0.27583000      -0.23734000
H       10.49437000       9.18507000      10.52331000      -0.14097000       0.02450000       0.02484000
O        8.08268000       0.52119000       0.76103000      -0.03911000      -1.49036000      -0.72729000
H        8.28878000      -0.37842000       0.39212000      -0.28851000       1.41322000       0.56729000
H        8.90111000       0.82599000       1.15111000       0.21530000       0.11422000       0.11972000
O       -1.09749000       7.02544000       3.56234000       0.47299000      -0.36100000      -1.45311000
H       -2.03308000       6.78789000       3.38046000       1.29701000       0.06417000      -0.04816000
H       -0.51216000       6.67392000       2.80962000      -1.50986000       0.28554000       1.41281000
O        5.39247000       1.38810000      11.58254000       0.47598000       0.11035000      -1.89966000
H        4.84782000       1.08511000      10.82122000       0.34941000       0.27642000       1.04440000
H        6.18403000       1.68730000      11.05475000      -1.11910000      -0.49493000       0.96194000
O        1.22362000       7.83551000       1.01414000       1.10290000       0.76189000      -0.02452000
H        0.79418000       8.61883000       0.61147000       0.64064000      -0.71226000       0.44065000
H        2.16632000       8.07322000       1.22214000      -1.58073000      -0.03666000      -0.45723000
O        4.94606000      10.68359000       3.34208000      -2.08902000       0.47953000       2.36031000
H        4.70277000       9.87144000       3.86535000       0.45397000       1.03766000      -0.87612000
H        4.35706000      11.36774000       3.82598000       1.52087000      -1.53317000      -1.39036000
O        9.93072000       2.71099000      11.45895000      -0.16675000      -1.67897000      -0.28972000
H        9.07083000       2.57219000      11.86930000       0.27666000       0.36268000       0.04722000
H       10.14363000       3.62838000      11.45713000      -0.00601000       1.26276000       0.42561000
O        9.76875000       5.39851000       0.05692000       0.54401000      -0.69686000      -1.52090000
H        9.96188000       6.04505000       0.71989000       0.42959000       0.68288000       0.06147000
H       10.35073000       5.55185000      -0.73396000      -0.84931000       0.11241000       1.47983000
O        4.00719000      12.01937000       7.67419000       0.70657000      -0.37127000       0.33974000
H        4.66261000      11.65101000       8.33171000      -0.58798000       1.06767000      -1.24717000
H        4.32050000      12.77477000       7.14969000       0.42988000      -0.73852000       0.72139000
O        0.66101000       0.48215000       6.77359000       1.59218000       0.05531000      -0.35926000
H        1.10673000       1.20457000       6.23655000      -0.57784000      -1.25859000       1.04319000
H        1.40483000      -0.11300000       7.04715000      -0.99843000       0.85044000      -0.60919000
O        1.36263000      14.18444000       7.51186000       0.78045000       0.87817000       1.54144000
H        1.59397000      14.64498000       8.37594000      -0.48179000      -0.86551000      -1.70183000
H        2.17861000      14.23485000       6.99666000      -0.27204000       0.00395000       0.12319000
124
Lattice="100.0 0.0 0.0 0.0 100.0 0.0 0.0 0.0 100.0" Properties=species:S:1:pos:R:3:forces:R:3 config_type=reactants_in_water energy=-82337.12237592 pbc="T T T"
C        5.64629000       7.23775000       6.65136000       0.74193000       0.20319000       0.08621000
C        4.80922000       6.24456000       7.39897000      -0.90046000       0.75220000       0.47963000
C        5.63443000       5.21005000       7.80900000       0.37985000       0.67649000      -0.42233000
H        3.86224000       6.59050000       7.87352000       1.12516000      -0.95359000      -0.64649000
C        6.86762000       5.33025000       7.11069000       0.15022000       0.27894000       0.06765000
H        5.32288000       4.36785000       8.38780000       0.08836000      -0.39766000       0.26802000
C        6.84641000       6.43204000       6.26198000      -1.05029000      -1.04314000       0.83600000
H        7.67542000       4.62202000       7.24232000      -0.09045000      -0.10341000      -0.25362000
H        7.59321000       6.75358000       5.55421000      -0.05881000       0.02179000       0.26027000
H        5.97656000       7.99856000       7.36942000      -0.05048000       0.01423000      -0.18487000
H        5.17854000       7.71341000       5.80956000      -0.11895000       0.43285000       0.06665000
C        4.97258000       5.38400000       4.87023000       0.52358000      -0.44822000      -0.99755000
C        3.90254000       5.51048000       5.73024000      -0.30596000      -0.64586000      -0.48751000
H        3.16255000       6.33006000       5.53328000       0.84430000      -0.89733000       0.54477000
H        3.52417000       4.57871000       6.18642000       0.01333000       0.81088000      -0.21823000
C        5.76162000       4.12742000       4.71137000       0.09714000       1.49010000      -0.04383000
H        5.16864000       6.14115000       4.07789000      -0.22581000      -0.72347000       0.85953000
O        5.77449000       3.16558000       5.46964000      -0.10157000       0.56489000      -0.41630000
C        6.62846000       4.17763000       3.45301000       0.15995000      -0.24541000       0.13138000
H        7.51224000       4.83743000       3.47850000      -0.42714000      -0.23714000       0.60198000