22
Lattice="100.0 0.0 0.0 0.0 100.0 0.0 0.0 0.0 100.0" Properties=species:S:1:pos:R:3:forces:R:3 config_type=vacuum energy=-11581.62842744 pbc="T T T"
C       -0.04630000       1.82864000       0.88823000      -0.40108000       0.32644000      -0.30948000
C       -0.97076000       0.84366000       1.65934000      -0.38026000      -0.86260000      -3.00803000
C       -0.02043000      -0.18319000       2.11350000       1.24001000       0.38074000       0.88302000
H       -1.74420000       1.18100000       2.35029000       0.17581000       0.07722000      -0.39190000
C        1.04590000      -0.18553000       1.30420000       1.03366000      -0.36209000       1.26980000
H       -0.07581000      -0.75394000       3.02473000      -0.39152000      -0.27892000      -0.09736000
C        0.86771000       0.78867000       0.25271000      -2.49978000      -0.68116000      -1.11539000
H        1.95486000      -0.76246000       1.42503000      -0.34435000      -0.28661000      -0.04222000
H        1.67564000       1.08810000      -0.37082000       0.54730000       0.26619000      -0.30837000
H        0.51824000       2.50826000       1.52901000      -0.04017000      -0.08918000       0.12496000
H       -0.57528000       2.40104000       0.10225000       0.14002000      -0.08712000       0.61620000
C       -0.43504000      -0.02554000      -0.73537000       2.44727000       1.88663000       1.09431000
C       -1.54808000       0.04672000       0.23008000      -1.59873000       2.30752000       0.22273000
H       -2.39218000       0.60254000      -0.27395000       0.82429000      -0.14315000       0.86684000
H       -1.96292000      -0.88397000       0.46980000      -0.24323000      -1.42579000       0.54464000
C        0.14167000      -1.29351000      -1.15977000      -1.85143000      -2.56871000       1.52421000
H       -0.46828000       0.60971000      -1.60558000      -0.39099000       0.45955000      -0.09232000
O       -0.17314000      -2.35145000      -0.59579000       0.98822000       1.34375000      -0.85894000
C        0.93947000      -1.25179000      -2.38730000       2.23923000      -0.12218000      -0.98592000
H        1.61637000      -0.38622000      -2.45097000      -0.62379000       0.17223000       0.06215000
H        0.27378000      -1.23988000      -3.24278000      -0.17690000       0.05737000      -0.15874000
H        1.65383000      -2.07798000      -2.50867000      -0.66467000      -0.18389000       0.23349000
22
Lattice="100.0 0.0 0.0 0.0 100.0 0.0 0.0 0.0 100.0" Properties=species:S:1:pos:R:3:forces:R:3 config_type=vacuum energy=-11581.00843442 pbc="T T T"
C        0.54383000       2.24656000       1.38304000      -0.23990000       1.00986000      -1.15907000
C       -0.28357000       1.26096000       2.09235000       0.47991000      -0.83418000       1.39514000
C        0.35476000       0.08475000       2.03190000       0.49702000       0.87440000      -2.00514000
H       -1.14693000       1.47557000       2.71090000       0.16384000       0.17314000      -0.14055000
C        1.46140000       0.17703000       1.00796000      -0.94992000      -1.27538000       2.43872000
H        0.09659000      -0.82567000       2.45870000      -0.62536000      -1.35467000       0.84725000
C        1.49834000       1.42066000       0.57966000       1.75032000       0.76499000      -0.99097000
H        2.16026000      -0.64642000       0.93415000      -0.06697000       0.16118000      -0.74347000
H        2.29123000       1.74907000      -0.11844000      -0.77732000       0.32154000       0.55937000
H        1.14669000       2.83637000       2.08983000      -0.18645000      -0.02417000      -0.06122000
H       -0.04888000       2.94249000       0.80325000      -0.05569000       0.34062000      -0.22816000
C       -1.29766000      -0.54277000      -1.40536000      -1.40960000      -0.14578000       1.64936000
C       -2.44840000      -0.59147000      -0.70803000       1.26121000       1.14002000      -1.36427000
H       -3.19779000       0.13809000      -0.87972000      -0.50566000       0.77602000       0.07307000
H       -2.62029000      -1.27202000       0.06976000      -0.21931000      -1.35748000       0.48587000
C       -0.36688000      -1.66237000      -1.20077000       1.53931000       0.68961000      -1.16142000
H       -0.98330000       0.35817000      -1.90382000      -0.15933000      -0.20316000      -0.70844000
O       -0.58285000      -2.55338000      -0.43446000      -0.24819000      -0.91700000       0.70998000
C        0.94433000      -1.57453000      -1.99116000       1.35997000       0.92347000       2.02141000
H        1.28168000      -0.49959000      -1.94207000      -0.38919000      -0.96031000      -0.30211000
H        0.91766000      -1.89515000      -3.01780000      -0.22107000      -0.25491000      -0.30140000
H        1.73146000      -2.12760000      -1.40265000      -0.90342000       0.24885000      -0.85785000
22
Lattice="100.0 0.0 0.0 0.0 100.0 0.0 0.0 0.0 100.0" Properties=species:S:1:pos:R:3:forces:R:3 config_type=vacuum energy=-11581.1144386 pbc="T T T"
C        1.56588000       1.26148000       1.31424000       0.88682000      -0.50032000       2.20872000
C        0.60624000       0.64832000       2.34074000       1.38764000      -0.88852000      -1.15247000
C        0.48321000      -0.66184000       2.04539000      -0.60723000      -0.28817000      -1.26767000
H        0.23898000       1.21543000       3.15923000      -0.72538000       0.19760000       0.32385000
C        1.35252000      -1.02433000       0.85439000       0.00336000       1.86221000       1.82555000
H       -0.29354000      -1.35269000       2.37705000       0.50481000       0.21957000       0.48208000
C        2.05606000       0.10105000       0.56175000      -1.80220000      -2.00676000      -0.43881000
H        1.44009000      -2.00866000       0.41673000       0.11609000       0.09300000       0.11030000
H        2.80102000       0.08561000      -0.16812000       1.05246000       0.47220000      -1.10467000
H        2.45509000       1.74040000       1.76672000      -0.61669000       0.28521000       0.02246000
H        0.98710000       1.97177000       0.76252000      -0.06568000       0.57242000      -0.70890000
C       -0.99623000       0.51800000      -0.86072000       1.29279000       0.55326000      -0.72195000
C       -1.75300000       0.89789000       0.13221000      -1.55528000      -1.44778000       0.22900000
H       -1.75117000       1.82007000       0.63922000       0.11916000       0.90876000       0.36466000
H       -2.49582000       0.12242000       0.39921000       0.35745000       0.74267000       0.29776000
C       -1.10693000      -0.84381000      -1.39275000      -1.56337000      -0.92811000       0.60412000
H       -0.17862000       1.07857000      -1.30277000      -0.14919000       0.35564000       0.25982000
O       -2.06112000      -1.55679000      -1.11129000       0.94249000       0.18553000      -0.37638000
C        0.00098000      -1.22807000      -2.29591000      -0.45394000       0.43627000      -0.49208000
H       -0.19462000      -0.63294000      -3.18988000       0.59890000       0.46883000      -0.00288000
H       -0.09273000      -2.21900000      -2.66142000       0.08693000      -1.13393000       0.12609000
H        0.93725000      -1.00153000      -1.79286000       0.13061000       0.01977000      -0.46075000
22
Lattice="100.0 0.0 0.0 0.0 100.0 0.0 0.0 0.0 100.0" Properties=species:S:1:pos:R:3:forces:R:3 config_type=vacuum energy=-11580.93984791 pbc="T T T"
C        0.74328000       1.89110000       1.36103000       0.83114000      -0.06996000       0.27756000
C       -0.51616000       1.92788000       2.13917000      -0.14819000      -2.45441000       0.58943000
C       -0.91242000       0.67396000       2.53421000       2.00630000       0.60548000      -1.76542000
H       -0.92536000       2.85193000       2.35136000      -1.20221000       1.50768000       0.59173000
C        0.13215000      -0.27099000       1.94986000      -0.71759000       0.43047000       1.17357000
H       -1.79984000       0.33760000       3.04183000       0.01286000       0.23055000       0.21821000
C        1.02525000       0.43396000       1.26375000       1.34201000      -0.57361000      -0.99780000
H        0.23532000      -1.32261000       2.18450000      -0.33420000       0.00334000      -0.24923000
H        1.89039000       0.01167000       0.69621000      -0.83930000       0.43667000       0.73228000
H        1.58917000       2.36282000       1.93945000      -0.77648000      -0.23631000      -0.52827000
H        0.65492000       2.41909000       0.40740000       0.09403000      -0.07620000       0.03496000
C       -0.25342000      -0.21995000      -1.62697000      -0.93702000       0.19332000       0.60836000
C       -1.42197000       0.17668000      -1.08955000       0.27067000      -0.38651000       0.03998000
H       -1.86048000       1.18336000      -1.24368000       0.59823000      -0.73349000       0.52238000
H       -1.93739000      -0.57700000      -0.44391000       0.02978000       0.76843000      -1.07306000
C        0.09066000      -1.65937000      -1.63717000      -1.32694000      -3.22458000       1.11684000
H        0.52061000       0.45572000      -1.96850000      -0.38077000       0.13268000      -0.57813000
O       -0.65730000      -2.57394000      -1.22713000       1.04006000       2.37052000      -0.74781000
C        1.47962000      -2.03102000      -2.07576000      -0.42450000       1.34196000      -0.15049000
H        1.98035000      -1.63293000      -1.18036000       0.84575000      -0.36175000      -0.50331000
H        1.71977000      -1.42174000      -2.95280000       0.42369000      -0.05063000       0.25754000
H        1.65473000      -3.08094000      -2.29308000      -0.15737000       0.08914000       0.34350000
22
Lattice="100.0 0.0 0.0 0.0 100.0 0.0 0.0 0.0 100.0" Properties=species:S:1:pos:R:3:forces:R:3 config_type=vacuum energy=-11581.1144386 pbc="T T T"
C        1.56588000       1.26148000       1.31424000       0.88682000      -0.50032000       2.20872000
C        0.60624000       0.64832000       2.34074000       1.38764000      -0.88852000      -1.15247000
C        0.48321000      -0.66184000       2.04539000      -0.60723000      -0.28817000      -1.26767000
H        0.23898000       1.21543000       3.15923000      -0.72538000       0.19760000       0.32385000
C        1.35252000      -1.02433000       0.85439000       0.00336000       1.86221000       1.82555000
H       -0.29354000      -1.35269000       2.37705000       0.50481000       0.21957000       0.48208000
C        2.05606000       0.10105000       0.56175000      -1.80220000      -2.00676000      -0.43881000
H        1.44009000      -2.00866000       0.41673000       0.11609000       0.09300000       0.11030000
H        2.80102000       0.08561000      -0.16812000       1.05246000       0.47220000      -1.10467000
H        2.45509000       1.74040000       1.76672000      -0.61669000       0.28521000       0.02246000
H        0.98710000       1.97177000       0.76252000      -0.06568000       0.57242000      -0.70890000
C       -0.99623000       0.51800000      -0.86072000       1.29279000       0.55326000      -0.72195000
C       -1.75300000       0.89789000       0.13221000      -1.55528000      -1.44778000       0.22900000
H       -1.75117000       1.82007000       0.63922000       0.11916000       0.90876000       0.36466000
H       -2.49582000       0.12242000       0.39921000       0.35745000       0.74267000       0.29776000
C       -1.10693000      -0.84381000      -1.39275000      -1.56337000      -0.92811000       0.60412000
H       -0.17862000       1.07857000      -1.30277000      -0.14919000       0.35564000       0.25982000
O       -2.06112000      -1.55679000      -1.11129000       0.94249000       0.18553000      -0.37638000
C        0.00098000      -1.22807000      -2.29591000      -0.45394000       0.43627000      -0.49208000
H       -0.19462000      -0.63294000      -3.18988000       0.59890000       0.46883000      -0.00288000
H       -0.09273000      -2.21900000      -2.66142000       0.08693000      -1.13393000       0.12609000
H        0.93725000      -1.00153000      -1.79286000       0.13061000       0.01977000      -0.46075000
22
Lattice="100.0 0.0 0.0 0.0 100.0 0.0 0.0 0.0 100.0" Properties=species:S:1:pos:R:3:forces:R:3 config_type=vacuum energy=-11580.93984791 pbc="T T T"
C        0.74328000       1.89110000       1.36103000       0.83114000      -0.06996000       0.27756000
C       -0.51616000       1.92788000       2.13917000      -0.14819000      -2.45441000       0.58943000
C       -0.91242000       0.67396000       2.53421000       2.00630000       0.60548000      -1.76542000
H       -0.92536000       2.85193000       2.35136000      -1.20221000       1.50768000       0.59173000
C        0.13215000      -0.27099000       1.94986000      -0.71759000       0.43047000       1.17357000
H       -1.79984000       0.33760000       3.04183000       0.01286000       0.23055000       0.21821000
C        1.02525000       0.43396000       1.26375000       1.34201000      -0.57361000      -0.99780000
H        0.23532000      -1.32261000       2.18450000      -0.33420000       0.00334000      -0.24923000
H        1.89039000       0.01167000       0.69621000      -0.83930000       0.43667000       0.73228000
H        1.58917000       2.36282000       1.93945000      -0.77648000      -0.23631000      -0.52827000
H        0.65492000       2.41909000       0.40740000       0.09403000      -0.07620000       0.03496000
C       -0.25342000      -0.21995000      -1.62697000      -0.93702000       0.19332000       0.60836000
C       -1.42197000       0.17668000      -1.08955000       0.27067000      -0.38651000       0.03998000
H       -1.86048000       1.18336000      -1.24368000       0.59823000      -0.73349000       0.52238000
H       -1.93739000      -0.57700000      -0.44391000       0.02978000       0.76843000      -1.07306000
C        0.09066000      -1.65937000      -1.63717000      -1.32694000      -3.22458000       1.11684000
H        0.52061000       0.45572000      -1.96850000      -0.38077000       0.13268000      -0.57813000
O       -0.65730000      -2.57394000      -1.22713000       1.04006000       2.37052000      -0.74781000
C        1.47962000      -2.03102000      -2.07576000      -0.42450000       1.34196000      -0.15049000
H        1.98035000      -1.63293000      -1.18036000       0.84575000      -0.36175000      -0.50331000
H        1.71977000      -1.42174000      -2.95280000       0.42369000      -0.05063000       0.25754000
H        1.65473000      -3.08094000      -2.29308000      -0.15737000       0.08914000       0.34350000
22
Lattice="100.0 0.0 0.0 0.0 100.0 0.0 0.0 0.0 100.0" Properties=species:S:1:pos:R:3:forces:R:3 config_type=vacuum energy=-11581.1579401 pbc="T T T"
C        0.27327000       2.29918000       1.26585000       1.36288000       0.79936000      -0.35206000
C       -0.49027000       1.33274000       2.07973000       2.78081000      -0.54664000      -0.64103000
C        0.22532000       0.20358000       2.21515000      -0.73770000       0.29043000      -1.67295000
H       -1.39926000       1.55624000       2.47138000      -2.42567000       0.55462000       1.28288000
C        1.39032000       0.30157000       1.27529000      -0.22443000      -1.91443000       2.10588000
H       -0.22304000      -0.68075000       2.63356000       0.50438000      -0.27786000       0.32553000
C        1.47007000       1.50062000       0.75776000      -0.96554000       1.07624000      -1.29514000
H        2.07973000      -0.51615000       1.14356000       0.08188000      -0.02836000      -0.10238000
H        2.14145000       1.75686000      -0.05743000      -0.02298000       0.43618000       0.48776000
H        0.72714000       3.06723000       1.91002000      -0.21796000       0.05193000       0.20650000
H       -0.28326000       2.88719000       0.54138000      -0.10807000      -0.25719000      -0.31914000
C       -1.26337000      -0.77870000      -1.63043000      -0.67274000       0.70880000      -0.84349000
C       -2.42072000      -0.75373000      -0.96614000       0.96606000       0.48391000      -1.38121000
H       -3.17159000      -0.02696000      -1.21309000      -0.25126000       0.09365000       0.04168000
H       -2.60840000      -1.50727000      -0.26124000      -0.27990000      -0.69961000       1.09895000
C       -0.19019000      -1.74373000      -1.27912000       0.01204000       0.53162000       0.98581000
H       -1.07681000      -0.07060000      -2.47612000      -0.08356000      -0.62594000       1.00109000
O       -0.30903000      -2.56641000      -0.40499000      -0.54969000      -0.62026000       0.16425000
C        1.14335000      -1.50059000      -1.85504000       0.55190000       0.12924000      -1.39473000
H        1.75965000      -1.02146000      -1.11303000       0.23271000      -0.04785000       0.34190000
H        1.07687000      -0.80955000      -2.68731000       0.17391000       0.05793000      -0.23827000
H        1.59227000      -2.42876000      -2.20289000       0.10686000       0.01584000       0.13512000
22
Lattice="100.0 0.0 0.0 0.0 100.0 0.0 0.0 0.0 100.0" Properties=species:S:1:pos:R:3:forces:R:3 config_type=vacuum energy=-11580.50706075 pbc="T T T"
C       -0.12027000       1.81047000       0.91412000       1.04000000       0.28650000      -0.24532000
C       -0.89206000       0.76843000       1.69938000      -1.29258000       2.59919000      -1.28884000
C       -0.02689000      -0.18187000       2.04033000       2.77046000      -2.06455000       0.69222000
H       -1.76680000       1.04541000       2.24610000      -0.39222000      -0.06481000       0.25136000
C        1.17559000      -0.06895000       1.27180000      -0.39232000      -2.63767000       1.55436000
H       -0.21927000      -0.99354000       2.71602000      -0.08031000      -0.14998000       0.14579000
C        1.02684000       0.90932000       0.39121000      -1.05061000       3.12887000      -1.03963000
H        1.94542000      -0.83676000       1.21403000      -0.20247000       0.24832000       0.27051000
H        1.75495000       1.27547000      -0.31275000       0.08249000      -0.05243000      -0.09193000
H        0.34274000       2.52730000       1.63299000      -0.23242000      -0.37501000      -0.38800000
H       -0.66613000       2.39513000       0.15352000       0.23679000      -0.42174000       0.43081000
C       -0.62685000      -0.08153000      -0.93939000      -1.77383000       2.28288000       0.33518000
C       -1.68513000       0.02915000      -0.02272000       0.45044000      -3.88874000       0.32414000
H       -2.47933000       0.70491000      -0.13198000      -0.58804000       1.16329000      -0.21485000
H       -2.04879000      -0.97349000       0.41156000       0.63264000       1.66602000      -0.71932000
C        0.05863000      -1.31659000      -1.15100000       0.82171000       1.64956000      -1.60612000
H       -0.53228000       0.73837000      -1.65008000       0.29232000      -0.35687000      -0.02408000
O       -0.08664000      -2.24385000      -0.43952000      -0.64282000      -3.05464000       2.48475000
C        1.01129000      -1.38389000      -2.28811000       1.20377000       1.75377000       0.08405000
H        1.72938000      -0.53146000      -2.27691000      -0.63747000      -0.32875000       0.03059000
H        0.49561000      -1.34496000      -3.20862000      -0.73165000       0.15447000      -1.11505000
H        1.60999000      -2.24709000      -2.27000000       0.52528000      -1.30658000       0.22575000
