124
Lattice="100.0 0.0 0.0 0.0 100.0 0.0 0.0 0.0 100.0" Properties=species:S:1:pos:R:3:forces:R:3 config_type=reactants_in_water energy=-82337.92799398 pbc="T T T"
C        5.73206000       7.23474000       6.70207000       0.53841000      -1.72329000      -0.09886000
C        4.88261000       6.27492000       7.48255000       0.04770000       0.50975000       0.95952000
C        5.60210000       5.16994000       7.75847000      -0.10465000      -0.63608000       0.31462000
H        3.91857000       6.51494000       7.93306000       0.47181000      -0.04489000      -0.18289000
C        6.83222000       5.19824000       7.03297000       0.47373000       0.39170000      -0.06341000
H        5.24327000       4.28988000       8.27934000       0.09629000       0.30238000       0.11809000
C        6.92366000       6.34197000       6.31503000      -1.23978000       0.29870000      -0.25697000
H        7.51759000       4.37165000       7.03086000       0.19687000      -0.06660000      -0.08809000
H        7.67247000       6.57328000       5.56849000      -0.01582000       0.04234000       0.45042000
H        6.12752000       7.93701000       7.40345000       0.09885000       0.95460000       0.34942000
H        5.16197000       7.70672000       5.93029000       0.31163000       0.54117000      -0.40238000
C        4.77109000       5.27096000       4.71212000       0.67379000      -0.85360000       1.14440000
C        3.85264000       5.37405000       5.67393000      -1.66021000      -0.06821000      -0.15488000
H        3.12104000       6.21789000       5.70308000       0.81991000      -0.89075000      -0.22671000
H        3.60312000       4.52077000       6.31307000       0.04205000       0.46989000      -0.41885000
C        5.68544000       4.08438000       4.71344000      -0.50490000       1.04330000      -1.10349000
H        4.91555000       6.02291000       3.95224000      -0.03289000      -0.14775000       0.18198000
O        5.70162000       3.14124000       5.48297000      -0.16596000       0.46820000       0.08275000
C        6.56116000       4.14040000       3.48420000       0.02659000       0.58607000       0.83827000
H        7.10972000       5.10597000       3.46044000      -0.62799000      -0.48942000      -0.08637000
H        5.83245000       4.06208000       2.65777000       0.72022000       0.03653000       0.05625000
H        7.33571000       3.39482000       3.53875000      -0.10877000      -0.53577000      -0.31823000
O        3.31060000       5.41642000       2.51948000       0.25458000       2.03559000      -0.27506000
H        2.46655000       5.70597000       2.19391000      -0.57152000       0.52605000      -0.17867000
H        3.18008000       4.50005000       2.64771000      -0.16963000      -1.59193000       0.20157000
O        1.45449000       7.91257000       7.30177000       0.35987000       0.41260000       0.32639000
H        1.74733000       7.38547000       6.56225000      -0.28148000      -0.38237000      -0.21573000
H        0.52000000       7.76365000       7.44354000      -0.08268000      -0.19182000      -0.21170000
O        8.01666000       4.06141000       1.12407000       0.15280000      -0.39099000      -1.93428000
H        8.37110000       3.60087000       1.86900000       0.59223000      -0.35706000       0.89248000
H        7.47946000       4.76137000       1.45213000      -0.45135000       0.65009000       0.48032000
O        7.06156000       1.58379000       7.77231000       0.32424000       0.64773000       0.11402000
H        7.04108000       1.09089000       6.96014000      -0.51339000      -0.71731000      -0.59751000
H        7.87065000       2.08007000       7.60305000       0.03132000       0.20941000       0.48342000
O        2.57996000       8.30920000       2.13205000      -0.18683000      -0.11447000      -0.37030000
H        3.34593000       8.81562000       2.41325000      -0.24223000       0.15329000       0.11538000
H        1.78955000       8.75720000       2.44518000       0.32132000       0.29335000       0.23255000
O        6.43915000       5.63500000      10.84503000       0.67503000      -0.67965000       1.49201000
H        6.11891000       6.51936000      10.92093000      -0.29019000       0.78598000      -0.17201000
H        6.30107000       5.32877000       9.97044000      -0.40271000      -0.18726000      -1.33443000
O        3.29813000       3.16816000       1.47746000       0.91089000      -1.70240000       1.10781000
H        3.16668000       3.41340000       0.57894000      -0.27127000      -0.00299000      -1.02125000
H        3.23648000       2.19725000       1.56436000      -0.57714000       1.04959000      -0.45319000
O        4.88979000       0.95193000       4.31180000      -0.42411000      -0.06412000       0.35718000
H        5.58620000       1.05010000       3.64245000      -0.53650000      -0.47095000       0.06871000
H        4.18184000       0.34388000       4.05772000       0.70579000      -0.09539000      -0.29762000
O        9.63878000       3.07309000       3.56386000       0.28557000      -0.00102000      -0.22037000
H        9.85695000       3.92925000       3.95777000       0.05596000       0.04826000      -0.07401000
H       10.41030000       2.80430000       3.04331000      -0.19714000       0.33365000       0.04161000
O        1.78037000       4.21366000       8.22393000       0.32604000       0.48118000      -1.31709000
H        1.12136000       3.71772000       8.67904000      -0.65750000      -0.51260000       0.70518000
H        2.52541000       4.20852000       8.81400000       0.43784000       0.08839000       0.56138000
O        2.43353000       1.48811000       5.28547000       2.38035000       0.52926000      -0.50085000
H        2.41542000       1.19484000       6.19275000      -0.02267000      -0.08524000       0.36234000
H        3.42070000       1.73123000       5.09180000      -2.25912000      -0.40248000       0.54642000
O       10.83131000       4.06485000       0.63869000       0.86155000       0.00349000       0.17533000
H       10.01109000       4.34479000       0.23685000      -0.42126000       0.19726000       0.04507000
H       11.46939000       4.78639000       0.55412000      -0.38874000      -0.21875000      -0.06890000
O        0.85809000       2.25419000       3.21866000       0.52793000      -0.79193000       2.21865000
H        1.17419000       1.96907000       4.15706000      -0.67140000       0.82889000      -2.24176000
H        1.17312000       1.52764000       2.67484000      -0.09892000       0.02563000      -0.22272000
O        9.44180000       8.67292000       5.93899000       1.05912000       1.47874000       0.25064000
H        8.79141000       8.14227000       6.35405000      -0.98469000      -0.93956000       0.35850000
H        9.47741000       8.45915000       5.01732000       0.07932000      -0.51333000      -0.65760000
O       -0.02182000       6.53339000       1.17286000       0.87161000       0.27525000      -1.13384000
H        0.41300000       7.40089000       1.28305000      -0.27323000      -0.66857000      -0.02440000
H        0.31992000       6.24023000       0.29107000      -0.51857000       0.25239000       1.18759000
O        5.58556000       1.00232000       1.64789000      -0.62148000      -0.50987000       0.17684000
H        5.60519000       1.95303000       1.51387000      -0.07057000       0.26726000      -0.11599000
H        4.68425000       0.80565000       1.97145000       0.84575000       0.23714000      -0.43499000
O        9.63048000       7.62999000      10.42585000      -0.63266000      -0.32695000       1.58265000
H        9.99334000       8.39452000      10.87478000       0.09949000       0.05680000      -0.10050000
H        9.87236000       7.68299000       9.52648000       0.49816000       0.32954000      -1.46083000
O        4.51901000       2.24965000       8.97967000       0.71523000       0.13808000       0.99771000
H        5.45630000       2.25295000       8.70819000       0.04822000      -0.52275000       0.36755000
H        4.11750000       2.37653000       8.14696000      -0.98806000       0.19833000      -1.54277000
O        3.42095000       8.58832000       9.34072000       0.56757000       0.32117000       1.99300000
H        3.40924000       8.72960000       8.42584000      -0.15257000       0.35787000      -2.07060000
H        2.87890000       7.82075000       9.45850000      -0.67035000      -0.80733000       0.25234000
O        7.29492000       6.95996000       0.83103000      -1.19424000       0.55802000      -0.19139000
H        6.45309000       7.47508000       0.84327000       0.99159000      -0.57451000       0.06861000
H        7.27892000       6.49541000      -0.01326000       0.13138000      -0.04771000       0.04380000
O        8.95745000       1.12916000       9.93357000       0.18577000      -0.71553000       1.00318000
H        8.62260000       1.96097000      10.24182000      -0.19159000       0.84430000       0.75797000
H        9.06675000       1.31603000       9.02317000       0.33262000      -0.12712000      -1.44810000
O        8.81604000       4.03961000      10.80738000      -1.16405000      -0.57248000       0.90672000
H        9.21402000       4.66214000      10.22588000       0.44083000       0.84754000      -0.57729000
H        8.03953000       4.50719000      11.19459000       0.77439000      -0.18490000      -0.44809000
O        8.36338000       1.22143000       5.19434000      -1.59182000       1.20907000       0.77572000
H        8.72521000       0.96080000       4.36145000       0.35016000       0.00230000      -0.74496000
H        7.66242000       1.90293000       4.98822000       0.94012000      -1.08194000       0.23522000
O        1.60214000       2.71651000      10.63438000       0.25804000       1.65297000       0.09222000
H        2.07747000       2.20916000      10.00114000       0.87141000      -0.85206000      -0.55235000
H        0.91629000       2.17975000      10.96669000      -1.05636000      -1.04697000       0.63119000
O        0.77581000       6.70701000      10.19576000       1.05168000       1.37306000       0.12639000
H        0.27469000       6.33937000       9.49804000      -0.63573000      -0.82192000      -1.04147000
H        0.52433000       6.25948000      10.98544000      -0.27753000      -0.54343000       0.82034000
O        8.96443000       6.99217000       3.10536000       0.36506000       0.02711000      -1.17653000
H        8.22286000       7.15370000       3.66201000      -0.85789000      -0.01486000       0.88081000
H        8.53849000       6.87383000       2.22990000       0.39214000       0.06286000       0.39919000
O        6.65152000       9.42501000       4.34960000      -0.19166000      -0.76395000      -0.84016000
H        6.39967000       8.63710000       3.82261000       0.55445000       0.73332000       0.53868000
H        7.61793000       9.45864000       4.42043000      -0.42576000      -0.08499000       0.00932000
O        1.56858000       0.89194000       0.67735000      -0.25760000      -0.90164000      -1.04428000
H        2.22135000       0.29416000       0.28102000      -0.13176000       0.16885000       0.12405000
H        0.75453000       0.63713000       0.19369000       0.51777000       0.42184000       0.58852000
O        5.16605000      10.21104000       6.66204000      -1.05440000      -0.16304000       0.82558000
H        4.26702000      10.17953000       6.28230000       0.70301000       0.17223000       0.22819000
H        5.01053000      10.18056000       7.63263000       0.15493000       0.37052000      -0.77893000
O        4.15532000      11.41362000      10.04675000       0.35386000       0.55239000      -0.53173000
H        3.49672000      10.72737000      10.04563000      -0.68828000      -0.46278000       0.07939000
H        4.79326000      11.11396000      10.67988000       0.50667000      -0.18065000       0.43602000
O        9.85162000       9.58525000       1.22972000       0.94123000       1.23102000       0.17922000
H        9.58547000       9.11264000       0.46721000      -0.41672000      -0.74599000      -1.12147000
H        9.35501000       9.21505000       1.93424000      -0.61302000      -0.60310000       1.00679000
O        9.85953000       5.67571000       5.84977000      -1.14729000      -1.20912000      -0.36727000
H       10.60847000       6.23344000       5.87855000       1.16042000       0.95738000       0.18154000
H        9.73759000       5.28308000       6.72110000       0.22973000      -0.06400000      -0.03464000
O       10.06649000       2.83595000       7.10743000      -2.39867000       0.37179000       0.02508000
H        9.61646000       2.80458000       6.23974000       0.77469000      -0.35829000       0.34327000
H       10.99135000       2.83784000       6.99415000       1.48176000      -0.11583000      -0.43513000
O        1.18019000      10.19476000      10.53665000       1.01750000       0.44907000       0.75649000
H        0.35312000      10.42825000      10.16977000      -1.31616000       0.55588000      -0.48780000
H        1.43343000       9.41710000      10.06291000       0.46423000      -0.88097000      -0.38096000
118
Lattice="100.0 0.0 0.0 0.0 100.0 0.0 0.0 0.0 100.0" Properties=species:S:1:pos:R:3:forces:R:3 config_type=reactants_in_water energy=-78168.48932348 pbc="T T T"
C        5.68346000       7.18986000       6.64891000      -0.11207000      -0.11101000      -0.12683000
C        4.87191000       6.17740000       7.41838000       0.04156000       0.21808000       0.04748000
C        5.76285000       5.17128000       7.80558000      -1.47630000      -0.36044000      -1.34382000
H        3.99704000       6.44672000       7.99201000       0.08916000      -0.09366000      -0.06907000
C        6.91477000       5.25013000       7.02144000       0.02572000       0.24358000      -0.93388000
H        5.53927000       4.37712000       8.50069000      -0.41158000      -0.01126000      -0.70590000
C        6.78320000       6.30828000       6.13985000       0.38028000      -0.16252000       0.24486000
H        7.70367000       4.51517000       7.00683000      -0.03325000       0.03786000       0.01475000
H        7.53838000       6.63622000       5.44209000      -0.02570000       0.09505000      -0.04401000
H        6.11653000       7.89680000       7.36627000      -0.08921000       0.07084000      -0.10194000
H        5.14232000       7.75235000       5.89481000       0.11557000      -0.14123000       0.11897000
C        5.10394000       5.32733000       4.80340000      -0.09315000      -0.29579000      -0.33958000
C        4.05770000       5.36098000       5.71525000       0.02828000       0.11592000      -0.17093000
H        3.29633000       6.12216000       5.61504000      -0.05441000      -0.05705000      -0.04407000
H        3.72848000       4.41837000       6.12557000       0.05975000       0.00786000      -0.02213000
C        5.82878000       4.07143000       4.59485000      -0.24015000       0.58904000       0.05295000
H        5.23046000       6.11091000       4.06977000       0.00083000       0.05640000       0.01339000
O        5.66512000       3.10913000       5.32338000       0.00950000      -0.34832000       0.13778000
C        6.80456000       4.02397000       3.44137000      -0.02757000       0.27270000      -0.08575000
H        7.47298000       4.88474000       3.46615000       0.03661000      -0.05854000       0.08052000
H        6.25537000       4.06411000       2.49931000       0.12062000       0.11950000       0.28307000
H        7.37889000       3.10320000       3.48301000      -0.01304000       0.10577000       0.00612000
O        9.77562000       7.93860000       2.34070000      -0.58766000      -2.43995000      -0.77511000
H        9.56692000       8.05554000       1.37978000       0.26924000      -0.19185000       1.62628000
H        9.18606000       7.19920000       2.63446000       0.91559000       0.96469000      -0.24698000
O        3.14409000       5.25854000       9.75050000      -0.90704000      -0.43798000      -0.09881000
H        3.41228000       4.39089000       9.35572000      -0.83130000       0.81820000       0.37194000
H        2.15416000       5.23368000       9.75500000       1.47841000      -0.26310000      -0.02883000
O        3.34314000       2.73173000       2.79149000       1.41875000       0.00275000      -0.72186000
H        3.50680000       1.84316000       2.38620000       0.15906000       1.37395000       0.36466000
H        4.14269000       3.26468000       2.55214000      -0.86041000      -1.03968000       0.61349000
O        8.13565000       8.76797000       9.02654000      -2.91626000      -1.14758000      -0.17258000
H        7.27531000       9.15498000       8.72548000       1.26051000      -0.46012000       0.20898000
H        8.28138000       7.99206000       8.42878000      -0.33236000       1.16249000       0.74651000
O        1.47134000       8.18615000       7.70633000       0.76536000      -1.54906000       0.74129000
H        1.30783000       7.46473000       8.36469000       0.27376000       1.09191000      -0.97043000
H        2.45767000       8.26119000       7.66032000      -1.20844000       0.13912000       0.34956000
O        1.43961000       5.38389000       3.21036000      -0.63083000      -0.06695000      -1.44448000
H        1.81822000       4.94819000       2.40573000      -0.58320000       0.58045000       1.33932000
H        0.53119000       5.66628000       2.93536000       1.25175000      -0.47183000       0.41095000
O        4.61933000       9.07440000       2.64247000       1.06807000       0.13455000      -2.77623000
H        4.22539000       9.90080000       2.26500000       0.53694000      -1.42860000       0.44809000
H        5.20097000       8.72493000       1.92126000      -1.04968000       0.40692000       0.84085000
O        9.59549000       1.81773000       3.32179000      -1.88627000      -0.98032000      -0.14801000
H        9.03775000       1.09131000       3.69842000       0.68140000       0.99530000      -0.33671000
H        9.05318000       2.18808000       2.58062000       0.97742000      -0.11002000       1.20322000
O        2.56656000       2.85861000       8.38744000      -0.68060000       0.62002000      -1.72277000
H        2.80400000       2.94868000       7.43030000      -0.12075000      -0.35815000       1.27627000
H        1.63203000       2.53117000       8.38150000       1.49815000       0.15880000       0.26443000
O        2.31429000       8.01558000       1.72729000      -2.01447000       1.06603000       0.51733000
H        1.52599000       8.42458000       1.28923000       0.98894000      -0.55035000       0.71136000
H        2.18405000       8.19708000       2.69201000       0.20211000      -0.04881000      -1.16944000
O        7.46171000       0.05433000       8.58636000      -1.70143000       0.46312000      -0.58874000
H        6.65527000       0.46733000       8.98596000       1.04118000      -0.48012000      -0.76223000
H        7.44553000       0.34394000       7.63954000       0.05521000      -0.28978000       1.32135000
O        1.63221000       0.59298000       9.00892000      -0.20381000      -2.32772000      -0.68335000
H        2.37773000       0.04347000       9.35942000      -1.04071000       1.08480000      -0.31591000
H        1.24352000       0.04753000       8.27953000       0.51353000       0.58192000       1.05208000
O        9.65703000       9.60250000       7.55333000       2.56230000      -0.16584000      -0.97795000
H       10.50273000       9.88432000       7.98458000      -1.08085000      -0.41930000      -0.66083000
H        9.81049000       8.65753000       7.30020000       0.06654000       1.43402000       0.16547000
O        0.95772000       2.24512000       2.10571000       0.61346000      -0.69180000      -1.12723000
H        1.40956000       1.36771000       2.18695000      -0.66976000       1.32576000      -0.08954000
H        1.62686000       2.82919000       1.66788000      -0.86582000      -1.04077000       1.00996000
O       10.75336000       3.58863000       1.88224000      -0.06410000       0.15060000      -1.83236000
H       10.77692000       2.74188000       1.36935000       0.04941000       0.90670000       0.64323000
H       10.73735000       4.29723000       1.19070000       0.11589000      -0.99309000       0.91588000
O        9.42349000       7.31664000      10.72414000      -0.61782000       0.42574000      -0.54897000
H        8.76670000       6.89827000      10.11242000       0.86128000       0.60943000       1.09368000
H        9.24969000       8.28852000      10.64770000       0.02974000      -1.69068000       0.09147000
O        9.34598000       1.76119000       9.02541000      -0.01303000       1.95380000      -0.45024000
H        9.95386000       2.45557000       8.66634000      -0.84626000      -0.79132000       0.58354000
H        8.47609000       2.22273000       9.12956000       1.27061000      -0.69955000      -0.26062000
O        3.48747000       0.54575000       4.69708000       0.75600000       0.26676000      -1.21572000
H        4.23990000       0.18489000       4.16393000      -0.98742000       0.66900000       0.88347000
H        3.40094000       1.48618000       4.39928000       0.23560000      -0.87006000       0.42392000
O        8.25740000       9.32414000       4.34689000      -0.01240000       1.39058000      -0.34307000
H        8.65190000      10.16520000       4.68979000      -0.54646000      -1.25794000      -0.42661000
H        7.95240000       9.54815000       3.43180000       0.58215000      -0.27022000       1.13661000
O        0.91530000       3.63358000       5.54554000       0.57460000      -0.85561000       1.51072000
H        0.68500000       2.73545000       5.89330000       0.34569000       1.18790000      -0.50236000
H        1.59659000       3.97690000       6.17686000      -1.05007000      -0.33790000      -0.94696000
O        7.11859000       5.18498000       9.46300000       0.82389000       0.44828000       3.73154000
H        6.51397000       5.94353000       9.66214000       0.75133000      -0.98523000      -0.04315000
H        6.97389000       4.54991000      10.20888000       0.25723000       0.93107000      -0.58972000
O        4.67041000       9.84700000       4.75658000      -0.12474000      -0.24188000       2.66099000
H        4.11518000       9.02729000       4.77677000       0.80128000       1.19181000      -0.20353000
H        5.09643000       9.88019000       5.64989000      -0.67507000      -0.11727000      -1.14837000
O        0.63239000      10.31295000       6.03172000       0.12415000       0.69106000       1.42726000
H        0.05603000      10.81108000       6.66440000       0.88869000      -0.82259000      -0.74697000
H        1.32322000       9.89286000       6.60345000      -1.24476000       0.31701000      -0.56161000
O        9.02112000       9.98756000       1.61986000       0.33328000       2.39395000      -1.95636000
H        8.86243000      10.09515000       0.64834000       0.09415000       0.23149000       1.25371000
H        9.80534000      10.56209000       1.80830000      -1.04305000      -0.85107000      -0.18606000
O        5.49181000       2.48836000       1.20458000       0.87704000       0.46732000      -1.61214000
H        5.20462000       3.19072000       0.56832000       0.43431000      -1.02034000       0.60982000
H        6.43374000       2.30338000       0.96139000      -1.24621000       0.32150000       0.27051000
O        2.10713000      10.09873000       3.45749000       0.35938000       1.54118000      -1.09679000
H        1.80120000      10.34586000       2.54867000       0.42829000      -0.27407000       1.31217000
H        2.84393000      10.73116000       3.65179000      -0.92543000      -0.92166000       0.06839000
O        3.13853000       9.30092000       9.64534000      -0.40358000      -0.52672000       3.05185000
H        2.59983000       9.96362000      10.14656000       0.60895000      -0.98573000      -0.67172000
H        3.28525000       8.56271000      10.28886000      -0.25459000       0.95034000      -0.64300000
O        9.75622000       0.86721000       0.75880000      -0.84571000      -1.61633000      -0.43689000
H        9.92625000       0.09889000       0.15764000      -0.20897000       1.07345000       0.77446000
H        9.04437000       0.55103000       1.37026000       1.27901000       0.27645000      -0.76212000
O        3.59012000       9.95907000       7.54390000       1.37952000       2.28155000      -1.43836000
H        4.23814000      10.34810000       8.18369000      -1.17386000      -0.67979000      -0.73518000
H        3.50252000      10.64273000       6.83289000       0.16231000      -0.91035000       0.60763000
O        4.33805000       0.90304000       9.81208000       1.23313000      -1.34116000       0.04835000
H        5.05290000       0.74684000      10.47932000      -1.02097000       0.03357000      -0.74806000
H        4.41289000       0.14023000       9.18510000       0.12779000       1.05521000       0.73308000
O        8.37400000      10.88620000      10.97364000      -0.71122000      -0.94348000      -0.78906000
H        7.39839000      10.74951000      10.87316000       1.43661000       0.07723000       0.12609000
H        8.78201000      10.21397000      10.37178000      -0.76959000       0.98401000       0.56503000
O        2.99878000       6.28877000       0.18209000      -0.35746000      -2.23094000      -0.22348000
H        2.02212000       6.23685000       0.33717000       1.52423000       0.20162000       0.04782000
H        3.36834000       5.50605000       0.66311000      -0.60758000       1.20560000      -0.55974000
112
Lattice="100.0 0.0 0.0 0.0 100.0 0.0 0.0 0.0 100.0" Properties=species:S:1:pos:R:3:forces:R:3 config_type=reactants_in_water energy=-74004.25689898 pbc="T T T"
C        5.68346000       7.18986000       6.64891000      -0.20101000      -0.26404000      -0.54298000
C        4.87191000       6.17740000       7.41838000      -0.91325000      -0.89260000      -1.67994000
C        5.76285000       5.17128000       7.80558000       0.08273000      -0.59722000      -0.21496000
H        3.99704000       6.44672000       7.99201000      -0.27677000      -0.68963000      -1.16807000
C        6.91477000       5.25013000       7.02144000       0.13138000      -0.03871000       0.13619000
H        5.53927000       4.37712000       8.50069000      -0.13727000      -0.12114000      -0.02686000
C        6.78320000       6.30828000       6.13985000       0.24758000       0.04131000      -0.40901000
H        7.70367000       4.51517000       7.00683000       0.04389000       0.01106000      -0.05546000
H        7.53838000       6.63622000       5.44209000      -0.03864000       0.11992000       0.05211000
H        6.11653000       7.89680000       7.36627000      -0.28308000       0.12760000      -0.38664000
H        5.14232000       7.75235000       5.89481000       0.19999000      -0.11211000       0.26235000
C        5.10394000       5.32733000       4.80340000       0.49972000      -0.02995000       0.54345000
C        4.05770000       5.36098000       5.71525000       0.45774000       0.13736000       0.89077000
H        3.29633000       6.12216000       5.61504000       0.15207000      -0.04371000       0.17841000
H        3.72848000       4.41837000       6.12557000      -0.04242000      -0.00179000      -0.07480000
C        5.82878000       4.07143000       4.59485000       0.19073000       0.00330000      -0.36102000
H        5.23046000       6.11091000       4.06977000       0.34925000       0.07434000      -0.01285000
O        5.66512000       3.10913000       5.32338000      -0.21972000      -0.14881000       0.14183000
C        6.80456000       4.02397000       3.44137000      -0.02062000      -0.12092000       0.28863000
H        7.47298000       4.88474000       3.46615000      -0.23171000      -0.30362000      -0.09890000
H        6.25537000       4.06411000       2.49931000       0.02508000       0.07922000       0.04016000
H        7.37889000       3.10320000       3.48301000      -0.01610000      -0.06705000       0.05924000
O        5.12098000       7.15281000       9.21477000       1.63798000       3.25926000       4.14610000
H        4.85849000       8.07631000       9.45736000       0.20267000      -0.89082000       0.04698000
H        6.10693000       7.14291000       9.30646000      -1.35623000      -0.02246000       0.02252000
O       10.27525000       1.05190000       5.99253000      -1.51731000      -0.57956000       0.59841000
H        9.45609000       0.90331000       5.45634000       1.26229000       0.26413000       0.70603000
H       10.02365000       0.77936000       6.91068000       0.25721000       0.53662000      -0.91313000
O        2.61859000       5.58694000       3.61572000       5.60274000      -0.12672000      -2.91839000
H        3.55254000       5.88116000       3.76336000      -1.39424000      -0.46830000      -1.00245000
H        2.47941000       5.68326000       2.64005000       0.28984000      -0.17168000       1.36555000
O        6.78841000       1.22936000       7.75642000       1.02870000       0.21995000      -0.41806000
H        7.32565000       0.66010000       7.14985000      -0.62283000       0.99885000       0.96360000
H        7.38400000       1.98950000       7.97563000      -0.78364000      -1.19620000      -0.60468000
O        9.03238000       6.58813000       9.44888000      -1.23572000       0.29618000       1.14193000
H        8.06132000       6.57856000       9.25507000       1.37020000      -0.30461000       0.06650000
H        9.09435000       6.38534000      10.41615000      -0.03327000       0.30526000      -1.36250000
O        3.03056000       7.49773000       1.09624000      -0.74888000      -0.39583000       0.76519000
H        3.40763000       7.67121000       1.99531000      -0.53497000      -0.45590000      -1.02096000