22
Lattice="100.0 0.0 0.0 0.0 100.0 0.0 0.0 0.0 100.0" Properties=species:S:1:pos:R:3:forces:R:3 config_type=vacuum energy=-11580.59345095 pbc="T T T"
C       -0.05261000       1.81093000       0.86675000      -2.63016000       0.37585000       0.94912000
C       -0.90184000       0.79822000       1.69188000       2.37013000       0.11549000       0.19667000
C        0.05222000      -0.15444000       2.12334000      -1.74447000      -0.06955000      -0.62859000
H       -1.86339000       0.99107000       2.11250000      -0.11172000       0.27945000       0.59923000
C        1.18761000      -0.08520000       1.29218000       0.07933000       0.26665000      -0.14430000
H       -0.22671000      -0.99990000       2.74115000       0.27141000       0.15650000       0.10486000
C        1.00822000       0.96915000       0.43389000       1.91774000      -1.18491000      -0.64666000
H        1.96852000      -0.82403000       1.19638000      -0.07383000       0.01012000       0.22337000
H        1.64035000       1.28438000      -0.36579000       0.65574000      -0.00832000      -0.18302000
H        0.34688000       2.61874000       1.48426000      -0.14261000      -0.02916000       0.26199000
H       -0.59852000       2.23787000       0.04243000      -0.17047000       0.46819000      -0.06241000
C       -0.68868000      -0.06379000      -0.94733000      -0.59049000      -0.06373000       0.11828000
C       -1.74958000      -0.05101000      -0.05806000       0.58500000      -0.10705000      -0.14496000
H       -2.35083000       0.83771000       0.02935000      -0.45925000      -0.22782000      -0.50930000
H       -2.15429000      -0.99154000       0.34007000       0.38861000       0.57595000      -0.17137000
C        0.04851000      -1.27581000      -1.16641000       0.16455000      -3.32564000       1.09759000
H       -0.46765000       0.74192000      -1.61433000      -0.09226000       0.43175000      -0.17414000
O       -0.10268000      -2.26903000      -0.42164000      -0.10800000       1.59027000      -0.69195000
C        1.02504000      -1.45122000      -2.30968000       0.46701000       0.98318000       0.89254000
H        1.80673000      -0.66580000      -2.20736000      -0.31707000      -0.54823000      -0.27088000
H        0.48981000      -1.28591000      -3.22199000      -0.18865000       0.14826000      -0.74291000
H        1.46174000      -2.45768000      -2.26616000      -0.16328000       0.49503000      -0.01681000
115
Lattice="100.0 0.0 0.0 0.0 100.0 0.0 0.0 0.0 100.0" Properties=species:S:1:pos:R:3:forces:R:3 config_type=reactants_in_water energy=-76093.38926917 pbc="T T T"
C        5.68098000       7.19220000       6.51000000       1.20619000      -0.03560000       0.43940000
C        4.71855000       6.26121000       7.18501000      -0.87576000      -1.84552000      -0.04021000
C        5.67802000       5.26036000       7.86398000       0.10187000       1.06442000       0.60430000
H        3.86123000       6.66996000       7.69344000       0.59241000      -0.09934000       0.28300000
C        6.80272000       5.12938000       7.15311000      -1.13289000       0.70660000       0.18294000
H        5.44118000       4.83610000       8.81756000      -0.11963000      -0.51989000       0.22404000
C        6.52901000       5.98708000       5.89417000       3.03444000       2.72591000       4.22480000
H        7.63878000       4.47788000       7.38638000      -0.06242000       0.14893000      -0.29245000
H        7.39772000       6.24287000       5.34381000       0.59460000       0.35827000      -0.39335000
H        6.23856000       7.79679000       7.25119000      -0.16605000      -0.29660000      -0.65130000
H        5.16334000       7.81608000       5.77609000       0.39821000      -0.03542000      -0.08314000
C        5.51357000       5.37052000       5.19530000      -5.94890000      -3.53043000      -4.35323000
C        4.15466000       5.37858000       6.01525000       2.01038000       1.06846000       0.61081000
H        3.34435000       5.87205000       5.49677000       0.29921000      -0.09878000      -0.12650000
H        3.80652000       4.44439000       6.39746000       0.15286000      -0.55009000      -0.26250000
C        5.86843000       3.94506000       4.69422000       0.69311000       1.34279000       0.15207000
H        5.22770000       6.06993000       4.39892000       0.72956000      -0.69452000      -0.58555000
O        5.39736000       2.93733000       5.16052000      -0.20683000       0.03845000      -0.16620000
C        7.02855000       3.92079000       3.72908000       1.24083000      -0.80073000      -1.21317000
H        7.79097000       4.72141000       3.89785000      -0.64072000      -0.77838000       0.30868000
H        6.73455000       4.15466000       2.68150000      -0.37487000      -0.06991000       0.79689000
H        7.50573000       2.89471000       3.71138000      -0.45360000       1.19092000       0.07566000
O        9.83142000       2.38132000       5.99235000       0.65392000       0.07759000       1.08686000
H        8.97588000       2.54092000       5.62277000      -0.64951000      -0.01761000      -0.52686000
H       10.39259000       2.02220000       5.31695000       0.02141000      -0.20424000      -0.61824000
O        6.01988000      10.58870000       5.86141000      -1.66388000       0.28297000       1.13928000
H        6.00997000      11.24935000       6.56540000      -1.07560000      -0.31284000       0.39773000
H        6.85171000      10.83760000       5.56677000       2.74608000       0.10000000      -1.65706000
O        3.48548000       5.83187000       2.97818000      -1.40924000       0.19766000      -1.61013000
H        3.85309000       5.31786000       3.66642000       0.44972000      -0.70064000       1.06132000
H        3.19661000       5.11931000       2.35827000       0.50296000       0.88258000       0.44167000
O        7.70472000       3.50888000       0.11827000       0.81442000      -0.72099000      -3.70762000
H        7.56201000       3.63018000       1.00576000      -0.19240000       0.52666000       3.15873000
H        8.60799000       3.78901000      -0.09795000      -0.50387000       0.11337000       0.46781000
O        1.11873000       4.30056000       0.93300000      -0.72501000      -2.10331000       0.84532000
H        0.20029000       4.18788000       0.65572000       0.41256000       0.25386000      -0.00020000
H        1.43499000       5.10560000       0.59970000       0.28846000       1.98269000      -0.80698000
O        9.26135000       1.51797000       9.56399000      -1.06736000       1.40226000       1.41335000
H        9.22101000       0.75340000       9.05184000      -0.42098000      -1.97312000      -1.38106000
H       10.13253000       1.82739000       9.43215000       1.39798000       0.72519000      -0.16354000
O        3.57460000       9.90232000       7.42784000       1.30923000       1.56709000       0.57177000
H        3.44822000       9.39396000       6.66146000      -0.35931000      -1.28288000      -1.64533000
H        2.84807000       9.72756000       7.99012000      -1.46234000      -0.11531000       0.53860000
O       10.40233000       5.16227000       0.34676000      -0.45291000      -0.93270000      -1.32269000
H       10.76413000       5.73571000       0.97529000       0.66654000       1.25446000       1.81340000
H       10.96796000       5.34042000      -0.40631000      -0.06637000      -0.15490000      -0.44877000
O        1.97866000       7.71774000       5.33622000       0.31586000       1.54201000      -0.08123000
H        2.15164000       7.67500000       4.40218000       0.14559000      -0.01553000      -0.77338000
H        1.83670000       6.81947000       5.56205000      -0.65601000      -1.07314000       0.77226000
O        4.19793000       3.91994000       1.31517000      -0.41846000      -0.24834000       1.55561000
H        3.93447000       4.03956000       0.42585000       0.10160000      -0.17876000      -1.38465000
H        5.11788000       3.68111000       1.39796000       0.14932000      -0.12999000      -0.62688000
O        4.62569000      10.30099000       9.77041000      -0.35434000       0.09262000       3.47717000
H        4.71642000      10.32105000       8.86457000       0.43391000       0.18137000      -3.32769000
H        5.35273000      10.78623000      10.15492000       0.13037000      -0.00826000       0.09715000
O        2.73645000       4.34304000       8.47505000       0.37234000      -1.56257000      -1.79408000
H        2.26026000       3.74005000       9.02821000      -0.66217000      -0.24261000       1.21408000
H        2.87413000       3.66026000       7.74816000      -0.01809000       1.63777000       0.88855000
O        8.00705000       9.15402000       3.20710000       0.63590000      -0.21157000      -0.27619000
H        7.38173000       8.83515000       3.84349000      -0.65765000      -0.63205000       0.46010000
H        7.97121000      10.09372000       3.32998000      -0.02950000       0.76107000      -0.10853000
O        9.41586000       7.15123000       6.01973000      -0.27573000      -1.04809000       0.26877000
H        9.48131000       7.73593000       5.29600000      -0.15670000       0.99437000      -1.56166000
H       10.01076000       7.55231000       6.62725000       0.55779000       0.33213000       1.17262000
O        5.48927000       0.86732000       0.58196000      -3.15875000       1.11134000       0.17459000
H        5.32537000       0.64641000      -0.32392000       0.26243000      -0.20491000      -0.55077000
H        6.34308000       0.67532000       0.83149000       2.94386000      -0.66628000       0.44653000
O        2.35616000       0.95964000       9.16912000      -0.77858000      -0.51571000      -2.39755000
H        2.98897000       0.85437000       9.83186000       1.47598000       0.14711000       2.24071000
H        2.80593000       0.41568000       8.49335000      -0.61132000       0.33157000      -0.12907000
O        7.40647000       6.34661000       1.42662000      -0.16407000      -1.12281000       1.51170000
H        7.51464000       6.94998000       0.73023000      -0.07965000       1.32575000      -1.50380000
H        8.30705000       6.09377000       1.62030000       0.24474000      -0.20449000       0.11136000
O        1.77776000       7.72528000       0.09123000      -1.51167000      -0.08800000      -0.72434000
H        1.37033000       8.39060000       0.64308000      -0.36888000       0.20028000       0.23930000
H        2.65776000       7.71729000       0.39047000       1.87196000      -0.14807000       0.57072000
O        0.44846000       6.58566000       7.44293000      -0.56561000       0.25234000      -0.79131000
H       -0.40027000       6.47716000       7.87170000      -0.07820000      -0.06293000       0.18512000
H        1.10572000       6.39332000       8.09204000       0.79092000      -0.30958000       0.70992000
O        9.14109000       1.24288000       2.37022000      -0.02708000      -0.91830000       0.17134000
H        9.79874000       1.63484000       1.80342000       0.21981000       0.30160000      -0.34776000
H        9.26781000       0.28196000       2.25518000      -0.16389000       0.67207000       0.13397000
O        2.12639000       1.39184000       3.51079000      -0.38417000      -0.93356000       0.39909000
H        2.79060000       1.91343000       3.10440000       1.25899000       0.58644000      -0.74600000
H        1.41087000       2.00550000       3.57992000      -0.77474000       0.50706000       0.11668000
O        1.03218000      10.08210000       3.20614000       2.73567000      -0.47705000      -1.87191000
H        0.28248000      10.22421000       3.70043000      -2.65907000       0.39533000       1.81059000
H        1.76066000      10.14221000       3.82678000       0.01548000      -0.03108000       0.11813000
O        8.63880000       5.28784000      10.42697000      -2.13178000       0.78773000       1.77739000
H        7.73102000       5.05887000      10.14874000       0.89772000       0.01217000      -0.05604000
H        9.22034000       5.10387000       9.73611000       1.14340000      -0.68717000      -1.90662000
O        5.63259000       1.57772000       8.59732000      -2.65652000      -3.15209000      -0.46514000
H        4.99844000       1.62722000       7.85020000       0.72925000      -0.00740000       0.69558000
H        6.12298000       2.33480000       8.55605000       2.02897000       3.11799000      -0.22179000
O       10.62255000      11.09479000       5.97356000      -2.44752000      -0.82468000       0.79543000
H       11.52659000      11.21045000       6.09775000       2.33745000       0.38593000       0.08017000
H       10.39185000      11.29017000       5.08209000       0.08139000       0.26039000      -0.94607000
O        0.83635000       1.90281000       6.52948000       0.01931000       0.49787000      -1.34166000
H        0.68134000       1.56789000       7.39189000      -0.23816000      -0.47909000       1.31561000
H       -0.01675000       1.88728000       6.07325000       0.37641000      -0.03170000       0.19053000
O        7.93330000       8.20955000       9.07485000      -0.79578000       0.29347000      -0.88937000
H        8.16458000       7.49192000       9.64310000       0.44895000      -0.74287000       0.74733000
H        8.49682000       8.94698000       9.25503000       0.54506000       0.38431000       0.37227000
O        3.11125000       7.81166000       9.08270000      -2.30688000      -2.09471000       1.33927000
H        3.64691000       8.53697000       8.91463000       1.93926000       1.84389000      -0.18299000
H        3.69142000       7.11521000       9.39032000       0.04411000       0.03136000       0.22095000
O       11.49655000       9.35865000       0.86895000      -0.68842000       1.04711000      -1.78182000
H       10.76841000       9.38520000       1.46094000      -0.86900000      -0.12010000       0.87281000
H       12.16555000       8.84416000       1.24232000       1.47370000      -1.15884000       1.08837000
O       -0.12104000       7.86599000      10.62815000      -1.24749000      -0.95382000      -2.09295000
H        0.18816000       8.13574000      11.44957000       1.05134000       0.73150000       2.14077000
H        0.62499000       7.82113000      10.03377000       0.46008000       0.14107000      -0.09947000
O        3.84063000       0.10077000       5.88150000      -0.64840000      -1.09059000       0.78627000
H        4.44537000       0.81359000       5.81090000       0.84684000       1.12447000      -0.42658000
H        2.97735000       0.50089000       5.99591000      -0.31792000       0.31831000      -0.48357000
118
Lattice="100.0 0.0 0.0 0.0 100.0 0.0 0.0 0.0 100.0" Properties=species:S:1:pos:R:3:forces:R:3 config_type=reactants_in_water energy=-78168.48932348 pbc="T T T"
C        5.68346000       7.18986000       6.64891000      -0.11207000      -0.11101000      -0.12683000
C        4.87191000       6.17740000       7.41838000       0.04156000       0.21808000       0.04748000
C        5.76285000       5.17128000       7.80558000      -1.47630000      -0.36044000      -1.34382000
H        3.99704000       6.44672000       7.99201000       0.08916000      -0.09366000      -0.06907000
C        6.91477000       5.25013000       7.02144000       0.02572000       0.24358000      -0.93388000
H        5.53927000       4.37712000       8.50069000      -0.41158000      -0.01126000      -0.70590000
C        6.78320000       6.30828000       6.13985000       0.38028000      -0.16252000       0.24486000
H        7.70367000       4.51517000       7.00683000      -0.03325000       0.03786000       0.01475000
H        7.53838000       6.63622000       5.44209000      -0.02570000       0.09505000      -0.04401000
H        6.11653000       7.89680000       7.36627000      -0.08921000       0.07084000      -0.10194000
H        5.14232000       7.75235000       5.89481000       0.11557000      -0.14123000       0.11897000
C        5.10394000       5.32733000       4.80340000      -0.09315000      -0.29579000      -0.33958000
C        4.05770000       5.36098000       5.71525000       0.02828000       0.11592000      -0.17093000
H        3.29633000       6.12216000       5.61504000      -0.05441000      -0.05705000      -0.04407000
H        3.72848000       4.41837000       6.12557000       0.05975000       0.00786000      -0.02213000
C        5.82878000       4.07143000       4.59485000      -0.24015000       0.58904000       0.05295000
H        5.23046000       6.11091000       4.06977000       0.00083000       0.05640000       0.01339000
O        5.66512000       3.10913000       5.32338000       0.00950000      -0.34832000       0.13778000
C        6.80456000       4.02397000       3.44137000      -0.02757000       0.27270000      -0.08575000
H        7.47298000       4.88474000       3.46615000       0.03661000      -0.05854000       0.08052000
H        6.25537000       4.06411000       2.49931000       0.12062000       0.11950000       0.28307000
H        7.37889000       3.10320000       3.48301000      -0.01304000       0.10577000       0.00612000
O        9.77562000       7.93860000       2.34070000      -0.58766000      -2.43995000      -0.77511000
H        9.56692000       8.05554000       1.37978000       0.26924000      -0.19185000       1.62628000
H        9.18606000       7.19920000       2.63446000       0.91559000       0.96469000      -0.24698000
O        3.14409000       5.25854000       9.75050000      -0.90704000      -0.43798000      -0.09881000
H        3.41228000       4.39089000       9.35572000      -0.83130000       0.81820000       0.37194000
H        2.15416000       5.23368000       9.75500000       1.47841000      -0.26310000      -0.02883000
O        3.34314000       2.73173000       2.79149000       1.41875000       0.00275000      -0.72186000
H        3.50680000       1.84316000       2.38620000       0.15906000       1.37395000       0.36466000
H        4.14269000       3.26468000       2.55214000      -0.86041000      -1.03968000       0.61349000
O        8.13565000       8.76797000       9.02654000      -2.91626000      -1.14758000      -0.17258000
H        7.27531000       9.15498000       8.72548000       1.26051000      -0.46012000       0.20898000
H        8.28138000       7.99206000       8.42878000      -0.33236000       1.16249000       0.74651000
O        1.47134000       8.18615000       7.70633000       0.76536000      -1.54906000       0.74129000
H        1.30783000       7.46473000       8.36469000       0.27376000       1.09191000      -0.97043000
H        2.45767000       8.26119000       7.66032000      -1.20844000       0.13912000       0.34956000
O        1.43961000       5.38389000       3.21036000      -0.63083000      -0.06695000      -1.44448000
H        1.81822000       4.94819000       2.40573000      -0.58320000       0.58045000       1.33932000
H        0.53119000       5.66628000       2.93536000       1.25175000      -0.47183000       0.41095000
O        4.61933000       9.07440000       2.64247000       1.06807000       0.13455000      -2.77623000
H        4.22539000       9.90080000       2.26500000       0.53694000      -1.42860000       0.44809000
H        5.20097000       8.72493000       1.92126000      -1.04968000       0.40692000       0.84085000
O        9.59549000       1.81773000       3.32179000      -1.88627000      -0.98032000      -0.14801000
H        9.03775000       1.09131000       3.69842000       0.68140000       0.99530000      -0.33671000
H        9.05318000       2.18808000       2.58062000       0.97742000      -0.11002000       1.20322000
O        2.56656000       2.85861000       8.38744000      -0.68060000       0.62002000      -1.72277000
H        2.80400000       2.94868000       7.43030000      -0.12075000      -0.35815000       1.27627000
H        1.63203000       2.53117000       8.38150000       1.49815000       0.15880000       0.26443000
O        2.31429000       8.01558000       1.72729000      -2.01447000       1.06603000       0.51733000
H        1.52599000       8.42458000       1.28923000       0.98894000      -0.55035000       0.71136000
H        2.18405000       8.19708000       2.69201000       0.20211000      -0.04881000      -1.16944000
O        7.46171000       0.05433000       8.58636000      -1.70143000       0.46312000      -0.58874000
H        6.65527000       0.46733000       8.98596000       1.04118000      -0.48012000      -0.76223000
H        7.44553000       0.34394000       7.63954000       0.05521000      -0.28978000       1.32135000
O        1.63221000       0.59298000       9.00892000      -0.20381000      -2.32772000      -0.68335000
H        2.37773000       0.04347000       9.35942000      -1.04071000       1.08480000      -0.31591000
H        1.24352000       0.04753000       8.27953000       0.51353000       0.58192000       1.05208000
O        9.65703000       9.60250000       7.55333000       2.56230000      -0.16584000      -0.97795000
H       10.50273000       9.88432000       7.98458000      -1.08085000      -0.41930000      -0.66083000
H        9.81049000       8.65753000       7.30020000       0.06654000       1.43402000       0.16547000
O        0.95772000       2.24512000       2.10571000       0.61346000      -0.69180000      -1.12723000
H        1.40956000       1.36771000       2.18695000      -0.66976000       1.32576000      -0.08954000
H        1.62686000       2.82919000       1.66788000      -0.86582000      -1.04077000       1.00996000
O       10.75336000       3.58863000       1.88224000      -0.06410000       0.15060000      -1.83236000
H       10.77692000       2.74188000       1.36935000       0.04941000       0.90670000       0.64323000
H       10.73735000       4.29723000       1.19070000       0.11589000      -0.99309000       0.91588000
O        9.42349000       7.31664000      10.72414000      -0.61782000       0.42574000      -0.54897000
H        8.76670000       6.89827000      10.11242000       0.86128000       0.60943000       1.09368000
H        9.24969000       8.28852000      10.64770000       0.02974000      -1.69068000       0.09147000
O        9.34598000       1.76119000       9.02541000      -0.01303000       1.95380000      -0.45024000
H        9.95386000       2.45557000       8.66634000      -0.84626000      -0.79132000       0.58354000
H        8.47609000       2.22273000       9.12956000       1.27061000      -0.69955000      -0.26062000
O        3.48747000       0.54575000       4.69708000       0.75600000       0.26676000      -1.21572000
H        4.23990000       0.18489000       4.16393000      -0.98742000       0.66900000       0.88347000
H        3.40094000       1.48618000       4.39928000       0.23560000      -0.87006000       0.42392000
O        8.25740000       9.32414000       4.34689000      -0.01240000       1.39058000      -0.34307000
H        8.65190000      10.16520000       4.68979000      -0.54646000      -1.25794000      -0.42661000
H        7.95240000       9.54815000       3.43180000       0.58215000      -0.27022000       1.13661000
O        0.91530000       3.63358000       5.54554000       0.57460000      -0.85561000       1.51072000
H        0.68500000       2.73545000       5.89330000       0.34569000       1.18790000      -0.50236000
H        1.59659000       3.97690000       6.17686000      -1.05007000      -0.33790000      -0.94696000
O        7.11859000       5.18498000       9.46300000       0.82389000       0.44828000       3.73154000
H        6.51397000       5.94353000       9.66214000       0.75133000      -0.98523000      -0.04315000
H        6.97389000       4.54991000      10.20888000       0.25723000       0.93107000      -0.58972000
O        4.67041000       9.84700000       4.75658000      -0.12474000      -0.24188000       2.66099000
H        4.11518000       9.02729000       4.77677000       0.80128000       1.19181000      -0.20353000
H        5.09643000       9.88019000       5.64989000      -0.67507000      -0.11727000      -1.14837000
O        0.63239000      10.31295000       6.03172000       0.12415000       0.69106000       1.42726000
H        0.05603000      10.81108000       6.66440000       0.88869000      -0.82259000      -0.74697000
H        1.32322000       9.89286000       6.60345000      -1.24476000       0.31701000      -0.56161000
O        9.02112000       9.98756000       1.61986000       0.33328000       2.39395000      -1.95636000
H        8.86243000      10.09515000       0.64834000       0.09415000       0.23149000       1.25371000
H        9.80534000      10.56209000       1.80830000      -1.04305000      -0.85107000      -0.18606000
O        5.49181000       2.48836000       1.20458000       0.87704000       0.46732000      -1.61214000
H        5.20462000       3.19072000       0.56832000       0.43431000      -1.02034000       0.60982000
H        6.43374000       2.30338000       0.96139000      -1.24621000       0.32150000       0.27051000
O        2.10713000      10.09873000       3.45749000       0.35938000       1.54118000      -1.09679000
H        1.80120000      10.34586000       2.54867000       0.42829000      -0.27407000       1.31217000
H        2.84393000      10.73116000       3.65179000      -0.92543000      -0.92166000       0.06839000
O        3.13853000       9.30092000       9.64534000      -0.40358000      -0.52672000       3.05185000
H        2.59983000       9.96362000      10.14656000       0.60895000      -0.98573000      -0.67172000
H        3.28525000       8.56271000      10.28886000      -0.25459000       0.95034000      -0.64300000
O        9.75622000       0.86721000       0.75880000      -0.84571000      -1.61633000      -0.43689000
H        9.92625000       0.09889000       0.15764000      -0.20897000       1.07345000       0.77446000
H        9.04437000       0.55103000       1.37026000       1.27901000       0.27645000      -0.76212000
O        3.59012000       9.95907000       7.54390000       1.37952000       2.28155000      -1.43836000
H        4.23814000      10.34810000       8.18369000      -1.17386000      -0.67979000      -0.73518000
H        3.50252000      10.64273000       6.83289000       0.16231000      -0.91035000       0.60763000
O        4.33805000       0.90304000       9.81208000       1.23313000      -1.34116000       0.04835000
H        5.05290000       0.74684000      10.47932000      -1.02097000       0.03357000      -0.74806000
H        4.41289000       0.14023000       9.18510000       0.12779000       1.05521000       0.73308000
O        8.37400000      10.88620000      10.97364000      -0.71122000      -0.94348000      -0.78906000
H        7.39839000      10.74951000      10.87316000       1.43661000       0.07723000       0.12609000
H        8.78201000      10.21397000      10.37178000      -0.76959000       0.98401000       0.56503000
O        2.99878000       6.28877000       0.18209000      -0.35746000      -2.23094000      -0.22348000
H        2.02212000       6.23685000       0.33717000       1.52423000       0.20162000       0.04782000
H        3.36834000       5.50605000       0.66311000      -0.60758000       1.20560000      -0.55974000
118
Lattice="100.0 0.0 0.0 0.0 100.0 0.0 0.0 0.0 100.0" Properties=species:S:1:pos:R:3:forces:R:3 config_type=reactants_in_water energy=-78177.67507138 pbc="T T T"
C        4.85750000       6.14572000       6.30484000       1.22024000       0.17032000       0.79918000
C        3.75926000       6.37838000       7.28243000      -0.62967000      -0.46904000      -1.41432000
C        4.21151000       6.25025000       8.53125000      -1.61647000       0.20218000       0.14713000
H        2.75430000       6.64615000       6.94543000       0.42440000      -0.38180000       0.13523000
C        5.61203000       6.16263000       8.56464000       1.77850000      -0.82456000      -4.51189000
H        3.52797000       6.10312000       9.32445000      -0.22549000       0.54811000       1.07322000
C        6.07352000       6.08309000       7.24779000      -1.66650000       0.29504000       1.42016000
H        6.25681000       6.00305000       9.34561000       1.03640000      -0.22995000       2.03104000
H        7.05065000       5.79227000       6.90654000       0.25734000       0.24406000       0.12189000
H        4.87906000       6.96018000       5.57118000       0.24370000      -0.50809000       0.01806000
H        4.88298000       5.12058000       5.84625000      -0.66803000       0.91670000       0.09174000
C        6.72288000       6.44723000       2.23500000       0.68171000      -1.01228000      -0.34970000
C        6.16756000       6.88574000       3.35026000       0.58211000       0.18698000      -0.63509000
H        5.28537000       7.46957000       3.22154000      -0.64129000       0.27685000       0.61428000
H        6.70775000       6.75673000       4.27774000      -0.35980000      -0.03392000       0.19084000
C        8.02108000       5.69830000       2.24387000       0.45532000       0.35241000      -0.76315000
H        6.28803000       6.54867000       1.24753000      -0.24920000       0.20835000       0.17346000
O        8.75010000       5.66982000       3.22252000      -0.62928000      -0.08113000      -0.20843000
C        8.48731000       5.16775000       0.88070000       0.25887000      -0.70223000       1.25020000
H        9.15181000       4.30803000       1.03709000       0.09421000       0.50842000      -0.07928000
H        9.03063000       5.98062000       0.41526000       0.25855000       0.10069000      -0.11419000
H        7.70451000       4.83701000       0.22840000      -0.69131000       0.05023000      -0.21811000
O       13.68561000       6.67377000       2.49137000      -0.75096000       0.78809000      -1.08999000
H       14.58899000       6.64032000       2.73659000       1.57372000       0.18522000       0.22469000