124
Lattice="100.0 0.0 0.0 0.0 100.0 0.0 0.0 0.0 100.0" Properties=species:S:1:pos:R:3:forces:R:3 config_type=reactants_in_water energy=-82337.56072575 pbc="T T T"
C        5.74645000       7.12807000       6.73790000       0.68967000      -0.99153000       1.02895000
C        4.93793000       6.15383000       7.55662000       0.16202000      -0.19394000       0.51575000
C        5.79549000       5.10638000       7.86961000      -0.57875000       0.15136000      -0.13175000
H        4.00302000       6.41024000       8.06962000       0.70857000      -0.19457000      -0.14069000
C        6.94574000       5.17001000       7.04399000       0.44664000      -0.63212000       0.19964000
H        5.51745000       4.25500000       8.47255000       0.12219000       0.10452000       0.10004000
C        6.81418000       6.21632000       6.17444000      -0.64867000       0.83707000       0.70006000
H        7.71589000       4.38255000       7.03730000      -0.45748000       0.62498000      -0.11419000
H        7.41803000       6.55880000       5.36564000       0.39429000      -0.08806000       0.22798000
H        6.18822000       7.85669000       7.44608000       0.00196000      -0.26042000      -0.48079000
H        5.19209000       7.62725000       6.01091000      -0.69802000       1.01462000      -1.04595000
C        5.06665000       5.27548000       4.86028000      -0.33203000      -0.99659000       0.42873000
C        4.01444000       5.30101000       5.73187000      -0.14257000       1.23591000      -0.40260000
H        3.22266000       6.05440000       5.69427000       0.50191000      -0.04073000      -0.18487000
H        3.71604000       4.45351000       6.27173000      -0.14717000      -1.14409000       0.50809000
C        5.80501000       3.99578000       4.77534000       0.16964000      -0.00306000      -0.27292000
H        5.20933000       6.01037000       4.07471000      -0.05667000      -0.21988000       0.26873000
O        5.71730000       3.08074000       5.59463000       0.18015000       0.95115000      -0.55209000
C        6.65157000       3.89222000       3.51321000      -1.25952000       0.60441000       0.43805000
H        7.31694000       4.73453000       3.43477000       0.33425000       0.41982000       0.15614000
H        5.89674000       4.05006000       2.71372000       0.48242000      -0.54974000       0.14640000
H        7.24236000       3.00261000       3.47451000      -0.09397000      -0.52687000      -0.32971000
O        3.22369000       5.30976000       2.70203000       1.88010000       0.44215000      -0.93155000
H        2.86143000       6.03233000       2.21974000      -0.56055000       0.80812000      -0.06115000
H        2.62515000       4.98357000       3.32906000      -1.44898000      -0.63666000       1.09034000
O        1.40458000       7.93353000       7.04819000       0.19918000      -0.28008000       1.68433000
H        2.00528000       7.58650000       6.41889000       1.05609000      -0.55804000      -0.83671000
H        0.77331000       8.40192000       6.54844000      -1.22043000       0.87224000      -0.88420000
O        7.91310000       4.02748000       0.76037000       0.10240000      -0.45697000      -1.95598000
H        8.39712000       3.67504000       1.48391000       0.73630000      -0.65463000       1.28960000
H        7.29653000       4.62309000       1.12602000      -0.97823000       1.02627000       0.73113000
O        6.99867000       1.55395000       7.74988000      -0.55972000      -0.64371000       0.11824000
H        6.30854000       1.57069000       7.06810000       0.23003000       0.34526000       0.19412000
H        7.56139000       2.29751000       7.56429000       0.06995000       0.45077000      -0.04137000
O        2.63922000       8.36156000       2.38882000       0.04416000       0.54067000      -1.49223000
H        2.75009000       8.79629000       1.51032000       0.21627000      -0.23719000       1.08680000
H        1.74311000       8.02955000       2.30073000      -0.39077000      -0.19707000       0.44151000
O        6.35877000       5.79388000      11.18472000       0.14703000      -1.58279000       1.69625000
H        6.18699000       6.63809000      10.85419000      -0.36934000       2.01474000      -0.91475000
H        6.64056000       5.27317000      10.44995000       0.34287000      -0.55847000      -0.81023000
O        3.45524000       3.24590000       1.30089000       0.43260000      -0.66721000      -0.02539000
H        3.50436000       3.47786000       0.36962000      -0.19712000      -0.37278000       0.02277000
H        2.95910000       2.42068000       1.39244000      -0.18573000       0.39958000      -0.52638000
O        4.71313000       0.99741000       4.27713000      -1.60848000      -0.97082000       0.97098000
H        4.88742000       0.72737000       3.36573000       0.24350000      -0.33660000       0.56981000
H        4.00527000       0.41713000       4.69497000       1.59589000       0.75459000      -1.12377000
O        9.45833000       2.91146000       3.47559000       0.56547000       0.16088000      -0.25409000
H        9.39097000       3.26786000       4.36557000      -0.02124000       0.02567000       0.00465000
H       10.29586000       3.25442000       3.13428000      -0.24354000       0.00060000      -0.16450000
O        1.82841000       4.24634000       8.24515000      -0.48504000      -0.25152000      -0.14749000
H        0.94570000       4.44486000       7.90418000       0.25077000      -0.10687000      -0.05472000
H        1.69538000       3.47610000       8.82117000       0.08508000       0.53035000       0.14430000
O        2.21284000       1.54742000       5.03880000       0.08869000      -0.56300000      -0.91652000
H        2.24939000       1.84480000       5.92635000       0.02035000       0.55765000       1.38255000
H        3.01916000       1.90080000       4.61765000      -0.07721000       0.02772000       0.12549000
O       10.56146000       4.09827000       0.75557000       2.15150000      -0.01398000       0.59360000
H        9.79738000       4.46143000       0.36036000      -1.57592000       0.51699000      -0.65951000
H       11.22112000       4.81142000       0.72030000      -0.32440000      -0.49105000       0.09634000
O        0.78375000       2.42059000       3.02430000       0.20301000      -0.84559000       1.01450000
H        1.04680000       2.12604000       3.94455000      -0.41275000       0.67551000      -1.09745000
H        1.03035000       1.61520000       2.54892000      -0.15548000       0.32687000      -0.36071000
O        9.27985000       8.77053000       5.71617000       0.91632000      -0.16508000      -0.59935000
H        8.33785000       8.78014000       5.85466000      -0.63924000       0.32018000       0.12034000
H        9.34991000       8.51174000       4.77626000       0.04203000       0.18709000       0.54783000
O       -0.00542000       6.58924000       1.16906000       0.21898000       1.18751000      -0.19973000
H        0.33128000       7.40014000       0.73750000      -0.31309000      -0.85727000       0.15878000
H        0.72365000       5.97082000       1.19675000       0.22561000      -0.33536000      -0.09041000
O        5.73984000       0.96597000       1.73167000       0.09778000      -0.18901000       0.02347000
H        5.71259000       1.91476000       1.84042000       0.59202000       0.83436000      -0.12934000
H        4.80191000       0.82122000       1.75709000      -0.79278000      -0.47057000      -0.66820000
O        9.59462000       7.62271000      10.13846000      -0.70852000       0.55950000       1.76056000
H        9.93475000       8.11767000      10.91501000      -0.21820000      -0.50121000      -0.95873000
H       10.28290000       7.60158000       9.50177000       0.97620000       0.09665000      -0.77515000
O        4.55390000       2.19763000       8.95945000      -0.18027000      -1.32180000       0.73134000
H        5.39018000       1.80030000       9.30750000      -0.75072000       0.52001000      -0.67187000
H        3.97286000       1.41863000       8.84162000       0.62600000       0.58133000      -0.02720000
O        3.54093000       8.54427000       9.18083000       1.96874000       0.12550000      -0.04861000
H        2.91507000       9.03092000       8.69130000      -1.22909000       0.88854000      -1.08231000
H        2.99128000       8.01815000       9.71727000      -1.00898000      -1.16575000       1.19630000
O        7.33826000       7.18584000       0.97123000      -0.41888000       0.21449000       0.61241000
H        6.39365000       7.25762000       0.80384000       0.03123000       0.02076000       0.03163000
H        7.73639000       6.98402000       0.13571000       0.40084000      -0.26170000      -0.64084000
O        8.97701000       1.37088000       9.79582000      -1.02302000       0.41449000       0.63576000
H        8.13980000       1.88086000       9.79014000       0.57703000      -0.69925000       0.08882000
H        9.50629000       1.93532000       9.23992000       0.58143000       0.21482000      -0.54263000
O        8.73654000       4.12668000      10.68269000      -0.28957000      -0.12566000      -1.02398000
H        9.19737000       3.45223000      11.15504000       0.43697000      -0.83397000       0.42627000
H        8.71183000       4.87711000      11.25272000      -0.12235000       0.98284000       0.56612000
O        8.28743000       0.86871000       5.17258000      -0.46453000      -0.46973000      -1.62810000
H        8.12990000       0.56392000       4.23745000       0.67092000       0.38459000       1.36334000
H        7.55239000       1.48037000       5.26316000      -0.44114000       0.13829000       0.27533000
O        1.58858000       2.63689000      10.71619000       0.50844000       1.30313000       0.35596000
H        2.41019000       2.32274000      10.36105000       1.07736000      -0.17299000       0.00318000
H        0.95739000       2.02918000      10.41025000      -1.48974000      -1.33571000      -0.36746000
O        0.60233000       6.42233000      10.24971000       0.38276000      -0.39725000      -0.34865000
H        0.70111000       6.06136000       9.34805000       0.15108000       0.35372000       0.65104000
H        1.14063000       5.82027000      10.79308000      -0.29696000       0.24545000      -0.33173000
O        8.97039000       6.96294000       3.36585000      -0.78087000       0.01118000       0.24638000
H        8.65288000       6.64404000       4.24324000       0.72506000       0.14040000      -1.06007000
H        8.21618000       7.01852000       2.75043000       0.30348000      -0.08347000       0.47513000
O        6.75071000       9.75302000       4.73493000       0.09816000      -0.60719000       1.31249000
H        5.80960000       9.75496000       4.90299000      -0.05188000       0.19525000       0.13278000
H        6.90783000       9.86676000       3.82418000       0.17660000       0.22480000      -1.62087000
O        1.94903000       0.78231000       0.64232000       1.80526000       0.09455000       0.95581000
H        2.45977000      -0.03009000       0.66981000       0.14436000      -0.06138000      -0.03553000
H        1.15808000       0.53750000       0.22570000      -1.85024000      -0.32787000      -0.94780000
O        5.07930000      10.21717000       6.75648000       0.87792000       0.33176000      -1.02025000
H        4.21129000       9.92002000       6.58048000      -1.46927000      -0.48093000      -0.10054000
H        5.10228000      10.35417000       7.68574000       0.03353000       0.32659000       1.34663000
O        4.46859000      11.18594000       9.92111000      -1.44363000       1.40538000      -0.43240000
H        3.69180000      10.62758000      10.02472000      -0.17662000      -0.05546000       0.13807000
H        5.16171000      10.57752000       9.98911000       1.67980000      -1.38684000       0.30477000
O        9.99518000       9.83893000       1.14471000      -0.79059000      -0.58397000       0.79269000
H       10.06395000       9.74150000       0.20523000       0.10607000       0.06126000      -0.78937000
H        9.46333000       9.06783000       1.41943000       0.41129000       0.50854000       0.04645000
O        9.85380000       6.05940000       5.79407000       0.71470000      -0.33780000      -0.05904000
H       10.35537000       6.78425000       6.18494000      -0.28137000       0.33810000      -0.35128000
H        9.54467000       5.58713000       6.55806000      -0.37451000      -0.50026000       0.52234000
O        9.79343000       2.85393000       7.30072000      -0.55497000       1.09073000       1.70889000
H        9.29296000       2.30026000       6.74307000      -0.79673000      -1.56381000      -1.20541000
H       10.62214000       2.93839000       6.88023000       1.46405000       0.16317000      -0.67448000
O        1.29562000      10.06651000      10.52340000      -0.45085000      -0.44217000      -0.06190000
H        0.70829000      10.68945000      10.08905000      -0.01632000       0.11029000       0.01253000
H        0.72543000       9.29955000      10.71260000       0.41858000       0.26518000      -0.10797000
22
Lattice="100.0 0.0 0.0 0.0 100.0 0.0 0.0 0.0 100.0" Properties=species:S:1:pos:R:3:forces:R:3 config_type=vacuum energy=-11580.85868406 pbc="T T T"
C       -0.28561000       1.81686000       0.83904000       0.39202000       1.18833000       0.58773000
C       -1.09393000       0.61855000       1.38751000      -0.35843000      -0.81534000       2.13602000
C        0.05274000      -0.31730000       1.95426000      -0.43559000       0.96503000      -1.15445000
H       -1.92565000       0.78223000       2.09007000       0.63301000       0.26564000       0.05199000
C        1.16325000      -0.04822000       1.25435000      -2.78149000       1.10088000      -1.54450000
H       -0.09923000      -1.19708000       2.57262000      -0.02780000       0.49046000       0.25002000
C        0.67585000       0.90373000       0.09315000      -0.22231000       0.37890000      -1.10016000
H        2.06857000      -0.56928000       1.24922000       1.16811000      -0.67056000       0.05455000
H        1.42479000       1.39429000      -0.55419000      -0.25954000      -0.33041000       0.51802000
H        0.31437000       2.44051000       1.59370000      -1.19478000      -0.96933000      -0.77926000
H       -0.88916000       2.51189000       0.17310000       0.67390000      -0.96823000       0.74210000
C       -0.53105000       0.13693000      -0.86004000       1.68081000      -0.94216000       0.85803000
C       -1.67107000       0.00262000       0.12959000      -0.17123000      -0.57797000      -1.19247000
H       -2.64563000       0.41233000      -0.17956000       0.65585000       0.45366000       0.02783000
H       -1.81319000      -1.06417000       0.07275000      -0.43221000      -0.48034000       1.19575000
C        0.15578000      -1.21486000      -1.07836000      -1.26426000      -0.41114000      -0.15102000
H       -0.89818000       0.58655000      -1.77494000       0.93482000       0.55416000      -0.23889000
O       -0.10629000      -2.21184000      -0.43609000      -1.39186000       0.08532000       0.36654000
C        1.39858000      -1.36586000      -1.85117000       0.45776000      -1.89237000      -0.19341000
H        1.80786000      -1.95944000      -0.97276000       1.50406000       1.27472000      -1.48718000
H        1.77573000      -0.42457000      -2.22120000       0.80079000      -0.12589000       0.10220000
H        1.36131000      -2.18458000      -2.64485000      -0.30639000       1.38762000       0.81493000
22
Lattice="100.0 0.0 0.0 0.0 100.0 0.0 0.0 0.0 100.0" Properties=species:S:1:pos:R:3:forces:R:3 config_type=vacuum energy=-11580.93984791 pbc="T T T"
C        0.74328000       1.89110000       1.36103000       0.83114000      -0.06996000       0.27756000
C       -0.51616000       1.92788000       2.13917000      -0.14819000      -2.45441000       0.58943000
C       -0.91242000       0.67396000       2.53421000       2.00630000       0.60548000      -1.76542000
H       -0.92536000       2.85193000       2.35136000      -1.20221000       1.50768000       0.59173000
C        0.13215000      -0.27099000       1.94986000      -0.71759000       0.43047000       1.17357000
H       -1.79984000       0.33760000       3.04183000       0.01286000       0.23055000       0.21821000
C        1.02525000       0.43396000       1.26375000       1.34201000      -0.57361000      -0.99780000
H        0.23532000      -1.32261000       2.18450000      -0.33420000       0.00334000      -0.24923000
H        1.89039000       0.01167000       0.69621000      -0.83930000       0.43667000       0.73228000
H        1.58917000       2.36282000       1.93945000      -0.77648000      -0.23631000      -0.52827000
H        0.65492000       2.41909000       0.40740000       0.09403000      -0.07620000       0.03496000
C       -0.25342000      -0.21995000      -1.62697000      -0.93702000       0.19332000       0.60836000
C       -1.42197000       0.17668000      -1.08955000       0.27067000      -0.38651000       0.03998000
H       -1.86048000       1.18336000      -1.24368000       0.59823000      -0.73349000       0.52238000
H       -1.93739000      -0.57700000      -0.44391000       0.02978000       0.76843000      -1.07306000
C        0.09066000      -1.65937000      -1.63717000      -1.32694000      -3.22458000       1.11684000
H        0.52061000       0.45572000      -1.96850000      -0.38077000       0.13268000      -0.57813000
O       -0.65730000      -2.57394000      -1.22713000       1.04006000       2.37052000      -0.74781000
C        1.47962000      -2.03102000      -2.07576000      -0.42450000       1.34196000      -0.15049000
H        1.98035000      -1.63293000      -1.18036000       0.84575000      -0.36175000      -0.50331000
H        1.71977000      -1.42174000      -2.95280000       0.42369000      -0.05063000       0.25754000
H        1.65473000      -3.08094000      -2.29308000      -0.15737000       0.08914000       0.34350000
22
Lattice="100.0 0.0 0.0 0.0 100.0 0.0 0.0 0.0 100.0" Properties=species:S:1:pos:R:3:forces:R:3 config_type=vacuum energy=-11581.22340261 pbc="T T T"
C        0.06009000       1.93940000       1.10225000      -0.05772000       0.97560000      -0.85286000
C       -0.68745000       1.16120000       2.08264000      -1.60730000      -1.12654000       2.01696000
C       -0.11588000      -0.05644000       2.22434000      -0.08461000       0.55762000      -0.53309000
H       -1.59979000       1.50257000       2.66545000       1.26055000      -0.39875000      -1.10495000
C        1.11510000      -0.08781000       1.39268000      -0.71140000      -2.06198000       2.03812000
H       -0.50992000      -0.90065000       2.76739000       0.06193000       0.07366000       0.15247000
C        1.28737000       1.08442000       0.85343000      -1.58394000       1.58558000      -0.79023000
H        1.72918000      -0.97866000       1.35337000       0.07321000       0.26988000      -0.22089000
H        1.99765000       1.34252000       0.15239000       1.56064000       0.61849000      -1.18377000
H        0.21563000       2.98774000       1.39221000       0.23746000      -0.26565000      -0.05195000
H       -0.60821000       1.95946000       0.18250000       0.94383000       0.07139000       0.76526000
C       -0.91911000      -0.30198000      -1.20611000       2.58265000      -0.11558000      -1.35544000
C       -2.06297000      -0.34529000      -0.62065000      -2.40381000       1.04972000       0.34111000
H       -2.81398000       0.44595000      -0.76637000       0.56602000      -0.23174000       0.32085000
H       -2.37684000      -1.17118000      -0.05654000      -0.30184000      -1.11475000       0.66726000
C        0.07142000      -1.43559000      -1.29119000      -0.67763000      -0.99146000       1.42087000
H       -0.61700000       0.56402000      -1.77503000      -0.09266000       0.14845000      -0.21812000
O        0.14165000      -2.32620000      -0.44998000      -0.19727000       1.03158000      -1.08942000
C        0.92767000      -1.37652000      -2.51076000       0.49800000       0.29062000      -0.15676000
H        1.63805000      -0.56802000      -2.30894000      -0.01465000       0.14383000      -0.16252000
H        0.32055000      -1.05574000      -3.37880000       0.45675000      -0.40528000       0.30060000
H        1.54210000      -2.27719000      -2.64454000      -0.57593000       0.19620000      -0.16777000
22
Lattice="100.0 0.0 0.0 0.0 100.0 0.0 0.0 0.0 100.0" Properties=species:S:1:pos:R:3:forces:R:3 config_type=vacuum energy=-11580.65292032 pbc="T T T"
C       -0.12122000       1.80949000       0.92667000      -0.77842000      -0.05935000       0.20285000
C       -0.90615000       0.73556000       1.72702000       1.16711000       0.43448000       0.29947000
C        0.02709000      -0.25343000       2.06569000       0.41484000       0.66362000      -0.38462000
H       -1.72308000       0.99826000       2.38981000      -0.10405000      -0.03756000      -0.30956000
C        1.15098000      -0.08146000       1.23455000       0.34591000      -0.08460000       0.41085000
H       -0.07981000      -1.05681000       2.78651000      -0.16898000       0.18595000      -0.21472000
C        0.97886000       0.98390000       0.37161000       0.03378000      -1.12604000       0.49751000
H        2.03038000      -0.70490000       1.22403000      -0.16394000      -0.31117000      -0.07892000
H        1.69857000       1.15966000      -0.40486000       0.04196000       0.75828000      -0.02716000
H        0.27467000       2.54692000       1.64171000       0.00265000      -0.19828000      -0.12303000
H       -0.72601000       2.32082000       0.18231000       0.09101000       0.17170000       0.13051000
C       -0.65436000      -0.05227000      -0.90724000      -0.47800000       0.24352000      -1.18267000
C       -1.73692000      -0.02608000      -0.06845000      -0.29087000       0.07156000       1.43423000
H       -2.36913000       0.86120000      -0.02624000      -0.19289000      -0.63797000      -0.48710000
H       -2.06668000      -0.92489000       0.46425000       0.00555000       0.39638000      -0.62079000
C        0.06286000      -1.27032000      -1.15483000       0.37072000      -3.07543000       0.34759000
H       -0.61539000       0.63774000      -1.72737000       0.25646000       0.68741000       0.00517000
O       -0.07769000      -2.25378000      -0.41567000       0.09020000       1.07645000      -0.56317000
C        1.05821000      -1.38682000      -2.32747000       0.01604000       1.50931000       1.26547000
H        1.65845000      -0.46976000      -2.20968000       0.20625000      -0.29954000      -0.27390000
H        0.58620000      -1.28051000      -3.30014000      -0.18200000      -0.37040000      -0.03537000
H        1.71521000      -2.25052000      -2.18811000      -0.47512000       0.12571000      -0.26815000
22
Lattice="100.0 0.0 0.0 0.0 100.0 0.0 0.0 0.0 100.0" Properties=species:S:1:pos:R:3:forces:R:3 config_type=vacuum energy=-11581.09586806 pbc="T T T"
C        1.24772000       0.97823000       1.93518000       1.26645000       2.42235000       1.04644000
C        1.09178000      -0.39035000       2.37981000       0.56326000      -1.85555000      -0.16400000
C        1.38077000      -1.20211000       1.34916000      -0.22042000      -0.79916000      -0.53415000
H        0.89798000      -0.79711000       3.35293000      -0.25227000       0.36870000       0.37055000
C        1.69355000      -0.40355000       0.15593000       1.10175000      -0.28858000      -0.13526000
H        1.32778000      -2.29815000       1.34008000       0.11748000       0.58295000       0.11971000
C        1.67926000       0.88716000       0.52453000      -1.12463000       0.31842000      -0.73809000
H        2.06417000      -0.81112000      -0.79982000      -0.60763000       0.22338000       0.58498000
H        1.66631000       1.78428000      -0.08714000       0.58403000      -0.30838000      -0.06427000
H        2.03322000       1.60913000       2.48659000      -0.93000000      -1.07624000      -0.37142000
H        0.34948000       1.57312000       2.05922000      -0.36916000       0.11336000      -0.04734000
C       -1.63454000       0.19060000      -0.14956000       0.02009000      -1.03840000       0.08256000
C       -1.94595000      -0.54349000       0.92236000       0.04731000      -1.13445000      -1.86703000
H       -2.34481000      -0.08456000       1.79688000       0.09010000       0.09479000       0.63797000
H       -1.91055000      -1.65869000       0.78316000      -0.12175000       1.28856000       0.49487000
C       -1.25110000      -0.38402000      -1.48219000      -1.73924000      -3.98703000       2.80130000
H       -1.64481000       1.23589000      -0.12209000      -0.15265000       1.54261000       0.27448000
O       -1.51075000      -1.59964000      -1.65726000       0.93865000       2.83608000      -0.46674000
C       -0.57629000       0.46145000      -2.42482000       1.30123000       2.31206000      -0.95821000
H       -0.92610000       0.20041000      -3.41333000       0.16943000       0.14013000      -0.39081000
H        0.51134000       0.26937000      -2.32618000      -0.54581000      -0.19504000      -0.25385000
H       -0.65218000       1.58779000      -2.22345000      -0.37749000      -1.66883000      -0.24561000
22
Lattice="100.0 0.0 0.0 0.0 100.0 0.0 0.0 0.0 100.0" Properties=species:S:1:pos:R:3:forces:R:3 config_type=vacuum energy=-11580.96962618 pbc="T T T"
C       -0.01620000       2.12785000       1.15660000       0.78813000       0.50080000      -1.62289000
C       -0.68734000       1.20584000       2.09703000      -1.83889000       0.48515000       0.78633000
C        0.15277000       0.27709000       2.50432000       0.78996000       0.01271000      -0.85504000
H       -1.70081000       1.23591000       2.53346000       0.65364000       0.67804000      -0.46395000
C        1.36620000       0.34925000       1.65692000       0.45824000      -1.24264000       1.61549000
H       -0.09887000      -0.38146000       3.29432000       0.21125000      -0.81699000       0.40607000
C        1.25695000       1.34409000       0.78298000      -1.63154000       0.08322000       1.78587000
H        2.20276000      -0.31874000       1.90729000      -0.30272000       0.33821000      -0.81402000
H        1.91136000       1.56282000       0.01557000       1.27394000       0.78252000      -1.23664000
H        0.32460000       3.01237000       1.75225000      -0.24174000      -0.46509000      -0.44593000
H       -0.51676000       2.52326000       0.24728000      -0.18441000      -0.34877000       0.76903000
C       -1.16694000      -0.66875000      -1.26130000      -1.75905000       1.74950000      -0.94176000
C       -2.10591000      -0.95792000      -0.35253000       2.50796000      -0.71349000      -0.10839000
H       -2.83474000      -0.26949000      -0.06209000      -1.17377000       0.80958000       0.14774000
H       -1.91419000      -1.82108000       0.25693000      -0.43313000      -0.40075000       0.15991000
C       -0.04473000      -1.59439000      -1.59388000      -0.59715000      -0.99900000       1.19290000
H       -1.39028000       0.28464000      -1.82269000       0.96949000      -1.07445000       0.36546000
O       -0.10191000      -2.71269000      -1.10594000       0.48928000       0.51569000      -0.73567000
C        1.14969000      -1.08447000      -2.33257000      -0.40197000       1.91527000       0.52111000
H        1.73435000      -0.55400000      -1.55016000      -0.32759000       0.00516000      -0.50302000
H        0.87398000      -0.35531000      -3.11631000       0.18854000      -0.33789000       0.45305000
H        1.78935000      -1.82160000      -2.71334000       0.54051000      -1.29292000      -0.61197000
121
Lattice="100.0 0.0 0.0 0.0 100.0 0.0 0.0 0.0 100.0" Properties=species:S:1:pos:R:3:forces:R:3 config_type=reactants_in_water energy=-80255.55370417 pbc="T T T"
C        5.99271000       7.18088000       6.87225000      -0.38094000       0.37371000      -1.36847000
C        5.14846000       6.25737000       7.63802000      -0.15375000      -1.34699000       0.84262000
C        5.68246000       5.00738000       7.56228000      -0.19320000       0.51810000       0.32006000
H        4.24298000       6.56502000       8.16657000       0.44089000      -0.14866000      -0.15914000
C        6.89630000       5.03240000       6.73300000      -0.77103000       1.12191000       0.56048000
H        5.36193000       4.12592000       8.09768000      -0.32399000       0.02899000      -0.17642000
C        7.06944000       6.30764000       6.33624000       1.28311000      -0.43607000       0.00662000
H        7.52270000       4.19739000       6.50631000       0.23454000      -0.27055000       0.09008000
H        7.99978000       6.63237000       5.87353000      -0.50496000       0.06628000      -0.28918000
H        6.32175000       8.07356000       7.38779000       0.06366000      -0.00815000       0.31565000
H        5.36164000       7.52185000       6.02555000       0.15400000       0.01460000       0.22424000
C        4.57037000       5.01860000       4.18636000      -0.62156000      -1.02480000       1.64403000
C        3.46053000       5.16703000       4.95346000       1.11608000       0.06529000      -0.43817000
H        2.86020000       6.05286000       4.94858000       0.16928000       0.30188000      -0.53588000
H        3.02806000       4.49051000       5.66786000       1.04517000      -0.65562000       0.08104000
C        5.58235000       3.84506000       4.37929000      -0.93903000       1.32721000       0.97949000
H        4.87457000       5.75599000       3.45699000      -0.03038000       0.22511000       0.09974000