22
Lattice="100.0 0.0 0.0 0.0 100.0 0.0 0.0 0.0 100.0" Properties=species:S:1:pos:R:3:forces:R:3 config_type=vacuum energy=-11580.34716789 pbc="T T T"
C       -0.12341000       1.82995000       0.93098000       1.27701000      -0.78930000      -0.81739000
C       -0.91894000       0.76501000       1.67736000      -0.74330000       2.64569000      -1.57735000
C       -0.02933000      -0.15182000       2.06433000       3.08030000      -3.11039000       0.68523000
H       -1.76181000       1.07202000       2.23606000      -0.84793000      -0.08236000       0.48841000
C        1.19716000      -0.07523000       1.30075000      -1.48333000      -2.43222000       2.20472000
H       -0.22582000      -1.01605000       2.69411000      -0.09468000       0.35278000       0.08199000
C        1.03091000       0.86918000       0.41130000      -1.37213000       4.78809000      -2.19623000
H        1.94563000      -0.83434000       1.21191000       0.20348000      -0.31584000       0.44944000
H        1.70592000       1.23962000      -0.35323000       0.10592000      -0.25064000       0.21272000
H        0.33686000       2.51598000       1.65933000      -0.10000000      -0.10919000      -0.20892000
H       -0.63598000       2.41285000       0.14278000       0.22737000      -0.44389000       0.54281000
C       -0.63044000      -0.08586000      -0.94848000      -1.43179000       2.20470000       0.51706000
C       -1.69175000       0.01832000      -0.00034000       0.69475000      -3.25609000      -0.11016000
H       -2.48338000       0.71503000      -0.12246000      -0.26593000       0.73325000      -0.17392000
H       -2.06402000      -0.99504000       0.38575000       0.60853000       1.64198000      -0.51089000
C        0.08666000      -1.32098000      -1.16073000      -0.40874000       0.43178000       0.11011000
H       -0.52035000       0.76515000      -1.64807000       0.15402000      -0.81407000       0.32002000
O       -0.09597000      -2.25921000      -0.42113000       0.08600000      -0.92615000       0.55137000
C        1.03502000      -1.35313000      -2.30636000       0.84235000      -0.09036000       1.46867000
H        1.72807000      -0.54008000      -2.24456000       0.29061000       0.68127000      -0.10173000
H        0.51431000      -1.32399000      -3.19354000      -1.30099000       0.43405000      -2.09100000
H        1.60066000      -2.24738000      -2.31578000       0.53527000      -1.00299000       0.23260000
22
Lattice="100.0 0.0 0.0 0.0 100.0 0.0 0.0 0.0 100.0" Properties=species:S:1:pos:R:3:forces:R:3 config_type=vacuum energy=-11580.62819096 pbc="T T T"
C       -0.03672000       1.85154000       0.91119000      -1.26346000       0.03525000       0.70663000
C       -0.94239000       0.78170000       1.60439000       0.28398000      -0.53835000      -0.13987000
C       -0.01881000      -0.23962000       2.03277000       0.00891000       1.44932000      -0.35801000
H       -1.90239000       0.96062000       2.11045000       0.86961000       0.40377000       0.05754000
C        1.10401000      -0.11285000       1.23504000       1.32755000      -0.35021000      -0.31644000
H       -0.12684000      -0.99496000       2.79667000      -0.41774000      -0.09969000      -0.34114000
C        1.05362000       1.01625000       0.39302000      -0.97450000      -1.71167000       0.60481000
H        1.83266000      -0.91819000       1.13137000      -0.03811000       0.43666000       0.20860000
H        1.74802000       1.38708000      -0.33437000       0.41956000      -0.19829000      -0.01450000
H        0.37512000       2.53406000       1.66729000      -0.13598000      -0.13951000       0.06341000
H       -0.52191000       2.44957000       0.15212000      -0.25400000       0.13461000      -0.04704000
C       -0.62143000      -0.02813000      -0.88693000       0.65734000      -1.05736000      -0.70183000
C       -1.67068000      -0.01374000       0.01383000      -0.50250000      -0.05083000       1.34436000
H       -2.44037000       0.72645000      -0.12809000      -0.19470000       0.06738000      -0.03381000
H       -2.02119000      -0.98637000       0.41209000       0.24028000       0.75229000      -0.49912000
C        0.00795000      -1.33845000      -1.15164000       0.97427000      -0.57205000       0.91653000
H       -0.41207000       0.81115000      -1.52033000      -0.17185000      -0.07891000      -0.54880000
O       -0.14206000      -2.31163000      -0.37974000       0.02334000       1.88010000      -1.73104000
C        1.05650000      -1.36032000      -2.29817000      -0.20044000       0.06879000       1.11129000
H        1.81578000      -0.59042000      -2.06604000      -0.40555000      -0.23872000      -0.19223000
H        0.62563000      -1.16667000      -3.27717000      -0.17425000       0.18597000       0.04177000
H        1.55748000      -2.32169000      -2.29108000      -0.00667000      -0.12765000      -0.07121000
22
Lattice="100.0 0.0 0.0 0.0 100.0 0.0 0.0 0.0 100.0" Properties=species:S:1:pos:R:3:forces:R:3 config_type=vacuum energy=-11580.32320787 pbc="T T T"
C       -0.03089000       1.78212000       0.94633000      -1.79905000       1.13545000       0.40239000
C       -0.88422000       0.79326000       1.70136000       0.64899000      -0.22628000       0.29246000
C        0.05517000      -0.16718000       2.13850000      -0.52296000      -0.27953000      -1.16995000
H       -1.79238000       1.14906000       2.16972000       0.19279000      -0.31095000       0.42283000
C        1.14249000      -0.10317000       1.24996000       1.41800000      -0.43270000       0.52119000
H       -0.11399000      -1.00184000       2.79588000      -0.07145000       0.07349000       0.22256000
C        0.99434000       0.94866000       0.37665000       0.41707000      -0.76707000      -0.34844000
H        2.00487000      -0.77171000       1.24176000      -0.57384000      -0.03583000      -0.02627000
H        1.58676000       1.26140000      -0.45484000       0.68032000       0.01067000       0.03142000
H        0.44763000       2.38877000       1.73566000      -0.20807000       0.18630000      -0.36104000
H       -0.63478000       2.38338000       0.28015000       0.25661000       0.38656000      -0.17886000
C       -0.71892000      -0.08272000      -0.96598000       0.69627000       0.56296000      -0.33669000
C       -1.71722000      -0.01029000      -0.01271000      -0.54539000      -0.07913000       0.04094000
H       -2.34628000       0.85949000       0.00280000      -0.40232000       0.07808000      -0.47209000
H       -2.23306000      -0.93434000       0.26773000       0.64685000       0.34576000       0.39638000
C        0.05423000      -1.27302000      -1.17057000      -1.12596000      -4.95332000       1.77950000
H       -0.53987000       0.64809000      -1.75269000      -0.26850000       0.35941000       0.52394000
O       -0.13085000      -2.31150000      -0.40576000       0.95941000       3.77968000      -2.71308000
C        1.03581000      -1.35001000      -2.34588000       0.11105000       0.15500000       0.89504000
H        1.58829000      -0.41631000      -2.35627000       0.47221000       0.06824000       0.09853000
H        0.62613000      -1.40658000      -3.34747000      -0.81427000      -0.19367000       0.05920000
H        1.69453000      -2.20845000      -2.21683000       0.00237000       0.21789000       0.13786000
22
Lattice="100.0 0.0 0.0 0.0 100.0 0.0 0.0 0.0 100.0" Properties=species:S:1:pos:R:3:forces:R:3 config_type=vacuum energy=-11580.62819096 pbc="T T T"
C       -0.03672000       1.85154000       0.91119000      -1.26346000       0.03525000       0.70663000
C       -0.94239000       0.78170000       1.60439000       0.28398000      -0.53835000      -0.13987000
C       -0.01881000      -0.23962000       2.03277000       0.00891000       1.44932000      -0.35801000
H       -1.90239000       0.96062000       2.11045000       0.86961000       0.40377000       0.05754000
C        1.10401000      -0.11285000       1.23504000       1.32755000      -0.35021000      -0.31644000
H       -0.12684000      -0.99496000       2.79667000      -0.41774000      -0.09969000      -0.34114000
C        1.05362000       1.01625000       0.39302000      -0.97450000      -1.71167000       0.60481000
H        1.83266000      -0.91819000       1.13137000      -0.03811000       0.43666000       0.20860000
H        1.74802000       1.38708000      -0.33437000       0.41956000      -0.19829000      -0.01450000
H        0.37512000       2.53406000       1.66729000      -0.13598000      -0.13951000       0.06341000
H       -0.52191000       2.44957000       0.15212000      -0.25400000       0.13461000      -0.04704000
C       -0.62143000      -0.02813000      -0.88693000       0.65734000      -1.05736000      -0.70183000
C       -1.67068000      -0.01374000       0.01383000      -0.50250000      -0.05083000       1.34436000
H       -2.44037000       0.72645000      -0.12809000      -0.19470000       0.06738000      -0.03381000
H       -2.02119000      -0.98637000       0.41209000       0.24028000       0.75229000      -0.49912000
C        0.00795000      -1.33845000      -1.15164000       0.97427000      -0.57205000       0.91653000
H       -0.41207000       0.81115000      -1.52033000      -0.17185000      -0.07891000      -0.54880000
O       -0.14206000      -2.31163000      -0.37974000       0.02334000       1.88010000      -1.73104000
C        1.05650000      -1.36032000      -2.29817000      -0.20044000       0.06879000       1.11129000
H        1.81578000      -0.59042000      -2.06604000      -0.40555000      -0.23872000      -0.19223000
H        0.62563000      -1.16667000      -3.27717000      -0.17425000       0.18597000       0.04177000
H        1.55748000      -2.32169000      -2.29108000      -0.00667000      -0.12765000      -0.07121000
22
Lattice="100.0 0.0 0.0 0.0 100.0 0.0 0.0 0.0 100.0" Properties=species:S:1:pos:R:3:forces:R:3 config_type=vacuum energy=-11581.02950949 pbc="T T T"
C       -0.09420000       1.79864000       0.91913000       0.23277000       0.66030000      -0.82343000
C       -0.88888000       0.77759000       1.68663000      -0.84745000       1.19055000      -0.05993000
C        0.00215000      -0.19060000       2.06899000       0.53783000      -0.99576000       0.22976000
H       -1.77463000       1.05393000       2.25964000       0.27289000      -0.13358000      -0.19645000
C        1.15569000      -0.10454000       1.27849000       0.39687000      -0.74312000       0.04266000
H       -0.23333000      -1.00220000       2.74454000       0.11430000       0.08316000      -0.02326000
C        1.02570000       0.93141000       0.38201000      -0.69376000       0.34310000       0.47961000
H        1.93696000      -0.86174000       1.24670000      -0.20855000       0.25229000       0.09849000
H        1.76751000       1.26634000      -0.31599000       0.15511000       0.09892000      -0.14726000
H        0.35433000       2.50962000       1.62739000      -0.04380000      -0.07768000      -0.02216000
H       -0.63340000       2.38137000       0.14716000       0.23669000      -0.36647000       0.56216000
C       -0.65917000      -0.04441000      -0.93673000      -0.24976000      -0.14415000       0.07614000
C       -1.71580000       0.00271000      -0.03621000       0.33728000      -1.30838000       0.15792000
H       -2.48027000       0.73889000      -0.13348000      -0.29433000       0.46629000      -0.04832000
H       -2.04106000      -0.96160000       0.38240000       0.13530000       0.58603000      -0.24198000
C        0.05670000      -1.32475000      -1.14005000       0.26396000       2.28935000      -1.42140000
H       -0.53277000       0.73537000      -1.67080000       0.11512000       0.02471000      -0.08361000
O       -0.10325000      -2.25642000      -0.42247000      -0.32609000      -1.88846000       1.40344000
C        1.02670000      -1.35130000      -2.30640000       0.65636000      -0.21630000       0.38774000
H        1.72523000      -0.50216000      -2.27453000      -0.34518000      -0.15281000       0.00668000
H        0.49019000      -1.32401000      -3.24305000      -0.27481000       0.13094000      -0.28055000
H        1.61562000      -2.27212000      -2.26339000      -0.13639000       0.14489000      -0.01441000
22
Lattice="100.0 0.0 0.0 0.0 100.0 0.0 0.0 0.0 100.0" Properties=species:S:1:pos:R:3:forces:R:3 config_type=vacuum energy=-11580.85744383 pbc="T T T"
C       -0.10834000       1.80154000       0.92629000       0.93653000       0.75409000      -0.79997000
C       -0.88372000       0.78252000       1.69538000      -1.04872000       1.51269000      -0.43078000
C       -0.00449000      -0.17968000       2.05093000       1.02756000      -1.83889000       1.01525000
H       -1.76564000       1.03888000       2.25507000      -0.14544000      -0.00906000       0.06830000
C        1.16197000      -0.08379000       1.28269000       0.51898000      -1.55005000       0.10685000
H       -0.22860000      -1.00085000       2.73046000       0.11159000       0.25866000      -0.18454000
C        1.02391000       0.92158000       0.37800000      -1.42286000       1.14330000       0.82050000
H        1.93042000      -0.86032000       1.23384000      -0.28131000       0.39415000       0.19639000
H        1.74896000       1.27006000      -0.29996000       0.69808000       0.30373000      -0.70901000
H        0.35407000       2.54162000       1.61087000      -0.15207000      -0.37134000      -0.13782000
H       -0.65053000       2.37031000       0.16309000       0.06069000      -0.20014000       0.26191000
C       -0.64584000      -0.06354000      -0.92589000      -0.46818000       1.68167000      -0.87863000
C       -1.69298000       0.01953000      -0.03701000      -0.55852000      -2.64616000       1.02253000
H       -2.48697000       0.71942000      -0.12872000      -0.21725000       0.72896000      -0.16101000
H       -2.04087000      -0.95997000       0.40712000       0.46120000       1.21902000      -0.58846000
C        0.04465000      -1.30606000      -1.15510000       1.13877000      -0.15232000      -0.51527000
H       -0.53858000       0.74519000      -1.66425000       0.16772000      -0.54487000       0.30320000
O       -0.08795000      -2.26740000      -0.44179000      -0.51110000      -0.90840000       0.90899000
C        1.03596000      -1.37937000      -2.29412000       0.03051000       1.87214000      -0.27846000
H        1.72809000      -0.49827000      -2.28633000      -0.62064000      -0.64221000       0.01210000
H        0.48953000      -1.34684000      -3.23248000      -0.11790000       0.09501000      -0.20313000
H        1.61696000      -2.26456000      -2.26808000       0.40947000      -0.87052000       0.23790000
22
Lattice="100.0 0.0 0.0 0.0 100.0 0.0 0.0 0.0 100.0" Properties=species:S:1:pos:R:3:forces:R:3 config_type=vacuum energy=-11580.65292032 pbc="T T T"
C       -0.12122000       1.80949000       0.92667000      -0.77842000      -0.05935000       0.20285000
C       -0.90615000       0.73556000       1.72702000       1.16711000       0.43448000       0.29947000
C        0.02709000      -0.25343000       2.06569000       0.41484000       0.66362000      -0.38462000
H       -1.72308000       0.99826000       2.38981000      -0.10405000      -0.03756000      -0.30956000
C        1.15098000      -0.08146000       1.23455000       0.34591000      -0.08460000       0.41085000
H       -0.07981000      -1.05681000       2.78651000      -0.16898000       0.18595000      -0.21472000
C        0.97886000       0.98390000       0.37161000       0.03378000      -1.12604000       0.49751000
H        2.03038000      -0.70490000       1.22403000      -0.16394000      -0.31117000      -0.07892000
H        1.69857000       1.15966000      -0.40486000       0.04196000       0.75828000      -0.02716000
H        0.27467000       2.54692000       1.64171000       0.00265000      -0.19828000      -0.12303000
H       -0.72601000       2.32082000       0.18231000       0.09101000       0.17170000       0.13051000
C       -0.65436000      -0.05227000      -0.90724000      -0.47800000       0.24352000      -1.18267000
C       -1.73692000      -0.02608000      -0.06845000      -0.29087000       0.07156000       1.43423000
H       -2.36913000       0.86120000      -0.02624000      -0.19289000      -0.63797000      -0.48710000
H       -2.06668000      -0.92489000       0.46425000       0.00555000       0.39638000      -0.62079000
C        0.06286000      -1.27032000      -1.15483000       0.37072000      -3.07543000       0.34759000
H       -0.61539000       0.63774000      -1.72737000       0.25646000       0.68741000       0.00517000
O       -0.07769000      -2.25378000      -0.41567000       0.09020000       1.07645000      -0.56317000
C        1.05821000      -1.38682000      -2.32747000       0.01604000       1.50931000       1.26547000
H        1.65845000      -0.46976000      -2.20968000       0.20625000      -0.29954000      -0.27390000
H        0.58620000      -1.28051000      -3.30014000      -0.18200000      -0.37040000      -0.03537000
H        1.71521000      -2.25052000      -2.18811000      -0.47512000       0.12571000      -0.26815000
22
Lattice="100.0 0.0 0.0 0.0 100.0 0.0 0.0 0.0 100.0" Properties=species:S:1:pos:R:3:forces:R:3 config_type=vacuum energy=-11580.34716789 pbc="T T T"
C       -0.12341000       1.82995000       0.93098000       1.27701000      -0.78930000      -0.81739000
C       -0.91894000       0.76501000       1.67736000      -0.74330000       2.64569000      -1.57735000
C       -0.02933000      -0.15182000       2.06433000       3.08030000      -3.11039000       0.68523000
H       -1.76181000       1.07202000       2.23606000      -0.84793000      -0.08236000       0.48841000
C        1.19716000      -0.07523000       1.30075000      -1.48333000      -2.43222000       2.20472000
H       -0.22582000      -1.01605000       2.69411000      -0.09468000       0.35278000       0.08199000
C        1.03091000       0.86918000       0.41130000      -1.37213000       4.78809000      -2.19623000
H        1.94563000      -0.83434000       1.21191000       0.20348000      -0.31584000       0.44944000
H        1.70592000       1.23962000      -0.35323000       0.10592000      -0.25064000       0.21272000
H        0.33686000       2.51598000       1.65933000      -0.10000000      -0.10919000      -0.20892000
H       -0.63598000       2.41285000       0.14278000       0.22737000      -0.44389000       0.54281000
C       -0.63044000      -0.08586000      -0.94848000      -1.43179000       2.20470000       0.51706000
C       -1.69175000       0.01832000      -0.00034000       0.69475000      -3.25609000      -0.11016000
H       -2.48338000       0.71503000      -0.12246000      -0.26593000       0.73325000      -0.17392000
H       -2.06402000      -0.99504000       0.38575000       0.60853000       1.64198000      -0.51089000
C        0.08666000      -1.32098000      -1.16073000      -0.40874000       0.43178000       0.11011000
H       -0.52035000       0.76515000      -1.64807000       0.15402000      -0.81407000       0.32002000
O       -0.09597000      -2.25921000      -0.42113000       0.08600000      -0.92615000       0.55137000
C        1.03502000      -1.35313000      -2.30636000       0.84235000      -0.09036000       1.46867000
H        1.72807000      -0.54008000      -2.24456000       0.29061000       0.68127000      -0.10173000
H        0.51431000      -1.32399000      -3.19354000      -1.30099000       0.43405000      -2.09100000
H        1.60066000      -2.24738000      -2.31578000       0.53527000      -1.00299000       0.23260000
