22
Lattice="100.0 0.0 0.0 0.0 100.0 0.0 0.0 0.0 100.0" Properties=species:S:1:pos:R:3:forces:R:3 config_type=vacuum energy=-11580.65292032 pbc="T T T"
C       -0.12122000       1.80949000       0.92667000      -0.77842000      -0.05935000       0.20285000
C       -0.90615000       0.73556000       1.72702000       1.16711000       0.43448000       0.29947000
C        0.02709000      -0.25343000       2.06569000       0.41484000       0.66362000      -0.38462000
H       -1.72308000       0.99826000       2.38981000      -0.10405000      -0.03756000      -0.30956000
C        1.15098000      -0.08146000       1.23455000       0.34591000      -0.08460000       0.41085000
H       -0.07981000      -1.05681000       2.78651000      -0.16898000       0.18595000      -0.21472000
C        0.97886000       0.98390000       0.37161000       0.03378000      -1.12604000       0.49751000
H        2.03038000      -0.70490000       1.22403000      -0.16394000      -0.31117000      -0.07892000
H        1.69857000       1.15966000      -0.40486000       0.04196000       0.75828000      -0.02716000
H        0.27467000       2.54692000       1.64171000       0.00265000      -0.19828000      -0.12303000
H       -0.72601000       2.32082000       0.18231000       0.09101000       0.17170000       0.13051000
C       -0.65436000      -0.05227000      -0.90724000      -0.47800000       0.24352000      -1.18267000
C       -1.73692000      -0.02608000      -0.06845000      -0.29087000       0.07156000       1.43423000
H       -2.36913000       0.86120000      -0.02624000      -0.19289000      -0.63797000      -0.48710000
H       -2.06668000      -0.92489000       0.46425000       0.00555000       0.39638000      -0.62079000
C        0.06286000      -1.27032000      -1.15483000       0.37072000      -3.07543000       0.34759000
H       -0.61539000       0.63774000      -1.72737000       0.25646000       0.68741000       0.00517000
O       -0.07769000      -2.25378000      -0.41567000       0.09020000       1.07645000      -0.56317000
C        1.05821000      -1.38682000      -2.32747000       0.01604000       1.50931000       1.26547000
H        1.65845000      -0.46976000      -2.20968000       0.20625000      -0.29954000      -0.27390000
H        0.58620000      -1.28051000      -3.30014000      -0.18200000      -0.37040000      -0.03537000
H        1.71521000      -2.25052000      -2.18811000      -0.47512000       0.12571000      -0.26815000
22
Lattice="100.0 0.0 0.0 0.0 100.0 0.0 0.0 0.0 100.0" Properties=species:S:1:pos:R:3:forces:R:3 config_type=vacuum energy=-11580.50581788 pbc="T T T"
C       -0.08876000       1.82017000       0.92796000       0.55538000       0.23098000       0.28277000
C       -0.90085000       0.74826000       1.63670000      -0.94705000       0.37328000      -0.52884000
C        0.09250000      -0.18695000       2.11142000      -0.72107000      -1.52372000      -0.58057000
H       -1.72059000       1.06319000       2.28865000       0.22790000      -0.24911000      -0.20128000
C        1.19701000      -0.11887000       1.27425000       0.29848000      -1.15949000       0.88745000
H       -0.14901000      -1.05737000       2.74145000       0.24421000       0.76575000      -0.09867000
C        0.96663000       0.90501000       0.41003000       1.18370000       1.41736000      -2.60452000
H        2.05371000      -0.81049000       1.15670000      -0.91932000       0.43279000       0.41239000
H        1.70547000       1.14858000      -0.36051000      -0.41067000       0.27427000       0.33385000
H        0.34926000       2.51055000       1.66621000       0.14535000      -0.37142000       0.07489000
H       -0.56113000       2.48904000       0.21597000      -0.31679000      -0.45262000      -0.21642000
C       -0.74970000      -0.12382000      -1.00657000       0.45912000       1.68439000       1.09411000
C       -1.70142000       0.11271000       0.06660000       0.30420000      -0.74913000      -0.89873000
H       -2.37726000       0.90319000      -0.28829000       0.05542000      -0.23527000       0.84189000
H       -2.20046000      -0.81952000       0.31857000      -0.07835000       0.24755000       0.49233000
C        0.01360000      -1.31701000      -1.20824000      -0.40118000      -1.98821000       2.68293000
H       -0.67687000       0.60284000      -1.81531000       0.00380000       0.05093000       0.29799000
O       -0.07928000      -2.28741000      -0.41528000      -0.05606000       1.34434000      -1.24424000
C        1.02774000      -1.33309000      -2.27879000      -0.21204000       0.17768000      -1.31281000
H        1.59818000      -0.40787000      -2.26393000       0.21474000      -0.06042000       0.01484000
H        0.52604000      -1.36905000      -3.26215000       0.08539000      -0.00967000       0.29590000
H        1.64591000      -2.20908000      -2.18663000       0.30845000      -0.13957000       0.09175000
22
Lattice="100.0 0.0 0.0 0.0 100.0 0.0 0.0 0.0 100.0" Properties=species:S:1:pos:R:3:forces:R:3 config_type=vacuum energy=-11580.50706075 pbc="T T T"
C       -0.12027000       1.81047000       0.91412000       1.04000000       0.28650000      -0.24532000
C       -0.89206000       0.76843000       1.69938000      -1.29258000       2.59919000      -1.28884000
C       -0.02689000      -0.18187000       2.04033000       2.77046000      -2.06455000       0.69222000
H       -1.76680000       1.04541000       2.24610000      -0.39222000      -0.06481000       0.25136000
C        1.17559000      -0.06895000       1.27180000      -0.39232000      -2.63767000       1.55436000
H       -0.21927000      -0.99354000       2.71602000      -0.08031000      -0.14998000       0.14579000
C        1.02684000       0.90932000       0.39121000      -1.05061000       3.12887000      -1.03963000
H        1.94542000      -0.83676000       1.21403000      -0.20247000       0.24832000       0.27051000
H        1.75495000       1.27547000      -0.31275000       0.08249000      -0.05243000      -0.09193000
H        0.34274000       2.52730000       1.63299000      -0.23242000      -0.37501000      -0.38800000
H       -0.66613000       2.39513000       0.15352000       0.23679000      -0.42174000       0.43081000
C       -0.62685000      -0.08153000      -0.93939000      -1.77383000       2.28288000       0.33518000
C       -1.68513000       0.02915000      -0.02272000       0.45044000      -3.88874000       0.32414000
H       -2.47933000       0.70491000      -0.13198000      -0.58804000       1.16329000      -0.21485000
H       -2.04879000      -0.97349000       0.41156000       0.63264000       1.66602000      -0.71932000
C        0.05863000      -1.31659000      -1.15100000       0.82171000       1.64956000      -1.60612000
H       -0.53228000       0.73837000      -1.65008000       0.29232000      -0.35687000      -0.02408000
O       -0.08664000      -2.24385000      -0.43952000      -0.64282000      -3.05464000       2.48475000
C        1.01129000      -1.38389000      -2.28811000       1.20377000       1.75377000       0.08405000
H        1.72938000      -0.53146000      -2.27691000      -0.63747000      -0.32875000       0.03059000
H        0.49561000      -1.34496000      -3.20862000      -0.73165000       0.15447000      -1.11505000
H        1.60999000      -2.24709000      -2.27000000       0.52528000      -1.30658000       0.22575000
22
Lattice="100.0 0.0 0.0 0.0 100.0 0.0 0.0 0.0 100.0" Properties=species:S:1:pos:R:3:forces:R:3 config_type=vacuum energy=-11580.41208101 pbc="T T T"
C       -0.13175000       1.80326000       0.92417000       1.47408000       0.30507000      -0.45435000
C       -0.90473000       0.76683000       1.70403000      -0.44069000       2.39135000      -1.83807000
C       -0.04403000      -0.18250000       2.04334000       3.35240000      -2.09551000       0.51585000
H       -1.75281000       1.05188000       2.23584000      -1.34143000       0.13407000       0.82232000
C        1.19023000      -0.06305000       1.28035000      -1.03696000      -3.74895000       2.81349000
H       -0.23814000      -0.99642000       2.70569000      -0.12862000      -0.31936000       0.31943000
C        1.02672000       0.88488000       0.41732000      -0.99216000       5.03598000      -2.59687000
H        1.95351000      -0.82382000       1.21016000      -0.02826000      -0.00955000       0.34295000
H        1.72641000       1.25165000      -0.33133000      -0.07730000      -0.18938000       0.24397000
H        0.33497000       2.52918000       1.62912000      -0.21343000      -0.41196000      -0.27903000
H       -0.64262000       2.40323000       0.15222000       0.07783000      -0.53731000       0.39520000
C       -0.64399000      -0.08316000      -0.96135000      -1.74048000       1.63995000       1.08523000
C       -1.68190000       0.01820000      -0.00370000       0.18564000      -3.14183000      -0.60366000
H       -2.49094000       0.70129000      -0.12027000      -0.11295000       0.74615000      -0.08095000
H       -2.04273000      -0.98029000       0.39206000       0.53788000       1.33065000      -0.42279000
C        0.07571000      -1.30359000      -1.15990000      -0.13148000      -0.16083000       0.24595000
H       -0.52583000       0.74758000      -1.63586000       0.24334000      -0.03884000      -0.29590000
O       -0.08394000      -2.24670000      -0.41660000      -0.06949000      -0.80279000       0.61530000
C        1.02858000      -1.35631000      -2.28682000       0.95724000       0.28332000      -0.10385000
H        1.73328000      -0.52889000      -2.25784000      -0.06906000       0.21511000      -0.02547000
H        0.51580000      -1.33543000      -3.21368000      -0.74299000       0.37966000      -0.97506000
H        1.59821000      -2.25783000      -2.30697000       0.35264000      -0.71244000       0.37619000
118
Lattice="100.0 0.0 0.0 0.0 100.0 0.0 0.0 0.0 100.0" Properties=species:S:1:pos:R:3:forces:R:3 config_type=reactants_in_water energy=-78168.48932348 pbc="T T T"
C        5.68346000       7.18986000       6.64891000      -0.11207000      -0.11101000      -0.12683000
C        4.87191000       6.17740000       7.41838000       0.04156000       0.21808000       0.04748000
C        5.76285000       5.17128000       7.80558000      -1.47630000      -0.36044000      -1.34382000
H        3.99704000       6.44672000       7.99201000       0.08916000      -0.09366000      -0.06907000
C        6.91477000       5.25013000       7.02144000       0.02572000       0.24358000      -0.93388000
H        5.53927000       4.37712000       8.50069000      -0.41158000      -0.01126000      -0.70590000
C        6.78320000       6.30828000       6.13985000       0.38028000      -0.16252000       0.24486000
H        7.70367000       4.51517000       7.00683000      -0.03325000       0.03786000       0.01475000
H        7.53838000       6.63622000       5.44209000      -0.02570000       0.09505000      -0.04401000
H        6.11653000       7.89680000       7.36627000      -0.08921000       0.07084000      -0.10194000
H        5.14232000       7.75235000       5.89481000       0.11557000      -0.14123000       0.11897000
C        5.10394000       5.32733000       4.80340000      -0.09315000      -0.29579000      -0.33958000
C        4.05770000       5.36098000       5.71525000       0.02828000       0.11592000      -0.17093000
H        3.29633000       6.12216000       5.61504000      -0.05441000      -0.05705000      -0.04407000
H        3.72848000       4.41837000       6.12557000       0.05975000       0.00786000      -0.02213000
C        5.82878000       4.07143000       4.59485000      -0.24015000       0.58904000       0.05295000
H        5.23046000       6.11091000       4.06977000       0.00083000       0.05640000       0.01339000
O        5.66512000       3.10913000       5.32338000       0.00950000      -0.34832000       0.13778000
C        6.80456000       4.02397000       3.44137000      -0.02757000       0.27270000      -0.08575000
H        7.47298000       4.88474000       3.46615000       0.03661000      -0.05854000       0.08052000
H        6.25537000       4.06411000       2.49931000       0.12062000       0.11950000       0.28307000
H        7.37889000       3.10320000       3.48301000      -0.01304000       0.10577000       0.00612000
O        9.77562000       7.93860000       2.34070000      -0.58766000      -2.43995000      -0.77511000
H        9.56692000       8.05554000       1.37978000       0.26924000      -0.19185000       1.62628000
H        9.18606000       7.19920000       2.63446000       0.91559000       0.96469000      -0.24698000
O        3.14409000       5.25854000       9.75050000      -0.90704000      -0.43798000      -0.09881000
H        3.41228000       4.39089000       9.35572000      -0.83130000       0.81820000       0.37194000
H        2.15416000       5.23368000       9.75500000       1.47841000      -0.26310000      -0.02883000
O        3.34314000       2.73173000       2.79149000       1.41875000       0.00275000      -0.72186000
H        3.50680000       1.84316000       2.38620000       0.15906000       1.37395000       0.36466000
H        4.14269000       3.26468000       2.55214000      -0.86041000      -1.03968000       0.61349000
O        8.13565000       8.76797000       9.02654000      -2.91626000      -1.14758000      -0.17258000
H        7.27531000       9.15498000       8.72548000       1.26051000      -0.46012000       0.20898000
H        8.28138000       7.99206000       8.42878000      -0.33236000       1.16249000       0.74651000
O        1.47134000       8.18615000       7.70633000       0.76536000      -1.54906000       0.74129000
H        1.30783000       7.46473000       8.36469000       0.27376000       1.09191000      -0.97043000
H        2.45767000       8.26119000       7.66032000      -1.20844000       0.13912000       0.34956000
O        1.43961000       5.38389000       3.21036000      -0.63083000      -0.06695000      -1.44448000
H        1.81822000       4.94819000       2.40573000      -0.58320000       0.58045000       1.33932000
H        0.53119000       5.66628000       2.93536000       1.25175000      -0.47183000       0.41095000
O        4.61933000       9.07440000       2.64247000       1.06807000       0.13455000      -2.77623000
H        4.22539000       9.90080000       2.26500000       0.53694000      -1.42860000       0.44809000
H        5.20097000       8.72493000       1.92126000      -1.04968000       0.40692000       0.84085000
O        9.59549000       1.81773000       3.32179000      -1.88627000      -0.98032000      -0.14801000
H        9.03775000       1.09131000       3.69842000       0.68140000       0.99530000      -0.33671000
H        9.05318000       2.18808000       2.58062000       0.97742000      -0.11002000       1.20322000
O        2.56656000       2.85861000       8.38744000      -0.68060000       0.62002000      -1.72277000
H        2.80400000       2.94868000       7.43030000      -0.12075000      -0.35815000       1.27627000
H        1.63203000       2.53117000       8.38150000       1.49815000       0.15880000       0.26443000
O        2.31429000       8.01558000       1.72729000      -2.01447000       1.06603000       0.51733000
H        1.52599000       8.42458000       1.28923000       0.98894000      -0.55035000       0.71136000
H        2.18405000       8.19708000       2.69201000       0.20211000      -0.04881000      -1.16944000
O        7.46171000       0.05433000       8.58636000      -1.70143000       0.46312000      -0.58874000
H        6.65527000       0.46733000       8.98596000       1.04118000      -0.48012000      -0.76223000
H        7.44553000       0.34394000       7.63954000       0.05521000      -0.28978000       1.32135000
O        1.63221000       0.59298000       9.00892000      -0.20381000      -2.32772000      -0.68335000
H        2.37773000       0.04347000       9.35942000      -1.04071000       1.08480000      -0.31591000
H        1.24352000       0.04753000       8.27953000       0.51353000       0.58192000       1.05208000
O        9.65703000       9.60250000       7.55333000       2.56230000      -0.16584000      -0.97795000
H       10.50273000       9.88432000       7.98458000      -1.08085000      -0.41930000      -0.66083000
H        9.81049000       8.65753000       7.30020000       0.06654000       1.43402000       0.16547000
O        0.95772000       2.24512000       2.10571000       0.61346000      -0.69180000      -1.12723000
H        1.40956000       1.36771000       2.18695000      -0.66976000       1.32576000      -0.08954000
H        1.62686000       2.82919000       1.66788000      -0.86582000      -1.04077000       1.00996000
O       10.75336000       3.58863000       1.88224000      -0.06410000       0.15060000      -1.83236000
H       10.77692000       2.74188000       1.36935000       0.04941000       0.90670000       0.64323000
H       10.73735000       4.29723000       1.19070000       0.11589000      -0.99309000       0.91588000
O        9.42349000       7.31664000      10.72414000      -0.61782000       0.42574000      -0.54897000
H        8.76670000       6.89827000      10.11242000       0.86128000       0.60943000       1.09368000
H        9.24969000       8.28852000      10.64770000       0.02974000      -1.69068000       0.09147000
O        9.34598000       1.76119000       9.02541000      -0.01303000       1.95380000      -0.45024000
H        9.95386000       2.45557000       8.66634000      -0.84626000      -0.79132000       0.58354000
H        8.47609000       2.22273000       9.12956000       1.27061000      -0.69955000      -0.26062000
O        3.48747000       0.54575000       4.69708000       0.75600000       0.26676000      -1.21572000
H        4.23990000       0.18489000       4.16393000      -0.98742000       0.66900000       0.88347000
H        3.40094000       1.48618000       4.39928000       0.23560000      -0.87006000       0.42392000
O        8.25740000       9.32414000       4.34689000      -0.01240000       1.39058000      -0.34307000
H        8.65190000      10.16520000       4.68979000      -0.54646000      -1.25794000      -0.42661000
H        7.95240000       9.54815000       3.43180000       0.58215000      -0.27022000       1.13661000
O        0.91530000       3.63358000       5.54554000       0.57460000      -0.85561000       1.51072000
H        0.68500000       2.73545000       5.89330000       0.34569000       1.18790000      -0.50236000
H        1.59659000       3.97690000       6.17686000      -1.05007000      -0.33790000      -0.94696000
O        7.11859000       5.18498000       9.46300000       0.82389000       0.44828000       3.73154000
H        6.51397000       5.94353000       9.66214000       0.75133000      -0.98523000      -0.04315000
H        6.97389000       4.54991000      10.20888000       0.25723000       0.93107000      -0.58972000
O        4.67041000       9.84700000       4.75658000      -0.12474000      -0.24188000       2.66099000
H        4.11518000       9.02729000       4.77677000       0.80128000       1.19181000      -0.20353000
H        5.09643000       9.88019000       5.64989000      -0.67507000      -0.11727000      -1.14837000
O        0.63239000      10.31295000       6.03172000       0.12415000       0.69106000       1.42726000
H        0.05603000      10.81108000       6.66440000       0.88869000      -0.82259000      -0.74697000
H        1.32322000       9.89286000       6.60345000      -1.24476000       0.31701000      -0.56161000
O        9.02112000       9.98756000       1.61986000       0.33328000       2.39395000      -1.95636000
H        8.86243000      10.09515000       0.64834000       0.09415000       0.23149000       1.25371000
H        9.80534000      10.56209000       1.80830000      -1.04305000      -0.85107000      -0.18606000
O        5.49181000       2.48836000       1.20458000       0.87704000       0.46732000      -1.61214000
H        5.20462000       3.19072000       0.56832000       0.43431000      -1.02034000       0.60982000
H        6.43374000       2.30338000       0.96139000      -1.24621000       0.32150000       0.27051000
O        2.10713000      10.09873000       3.45749000       0.35938000       1.54118000      -1.09679000
H        1.80120000      10.34586000       2.54867000       0.42829000      -0.27407000       1.31217000
H        2.84393000      10.73116000       3.65179000      -0.92543000      -0.92166000       0.06839000
O        3.13853000       9.30092000       9.64534000      -0.40358000      -0.52672000       3.05185000
H        2.59983000       9.96362000      10.14656000       0.60895000      -0.98573000      -0.67172000
H        3.28525000       8.56271000      10.28886000      -0.25459000       0.95034000      -0.64300000
O        9.75622000       0.86721000       0.75880000      -0.84571000      -1.61633000      -0.43689000
H        9.92625000       0.09889000       0.15764000      -0.20897000       1.07345000       0.77446000
H        9.04437000       0.55103000       1.37026000       1.27901000       0.27645000      -0.76212000
O        3.59012000       9.95907000       7.54390000       1.37952000       2.28155000      -1.43836000
H        4.23814000      10.34810000       8.18369000      -1.17386000      -0.67979000      -0.73518000
H        3.50252000      10.64273000       6.83289000       0.16231000      -0.91035000       0.60763000
O        4.33805000       0.90304000       9.81208000       1.23313000      -1.34116000       0.04835000
H        5.05290000       0.74684000      10.47932000      -1.02097000       0.03357000      -0.74806000
H        4.41289000       0.14023000       9.18510000       0.12779000       1.05521000       0.73308000
O        8.37400000      10.88620000      10.97364000      -0.71122000      -0.94348000      -0.78906000
H        7.39839000      10.74951000      10.87316000       1.43661000       0.07723000       0.12609000
H        8.78201000      10.21397000      10.37178000      -0.76959000       0.98401000       0.56503000
O        2.99878000       6.28877000       0.18209000      -0.35746000      -2.23094000      -0.22348000
H        2.02212000       6.23685000       0.33717000       1.52423000       0.20162000       0.04782000
H        3.36834000       5.50605000       0.66311000      -0.60758000       1.20560000      -0.55974000
22
Lattice="100.0 0.0 0.0 0.0 100.0 0.0 0.0 0.0 100.0" Properties=species:S:1:pos:R:3:forces:R:3 config_type=vacuum energy=-11580.31377307 pbc="T T T"
C       -0.12827000       1.81513000       0.90817000       1.48812000      -0.35879000       0.49729000
C       -0.89711000       0.75609000       1.70321000      -1.72494000       3.78954000      -2.11933000
C       -0.04458000      -0.17501000       2.04658000       3.85844000      -3.10015000       0.82176000
H       -1.76190000       1.05168000       2.22920000      -0.85108000      -0.02896000       0.58305000
C        1.17435000      -0.07452000       1.27315000      -0.64559000      -3.60458000       2.79204000
H       -0.23933000      -0.99026000       2.71237000      -0.10592000      -0.22175000       0.26188000
C        1.01727000       0.88517000       0.41771000      -0.51476000       5.03040000      -3.03770000
H        1.94964000      -0.83280000       1.20483000      -0.22901000       0.14596000       0.34269000
H        1.74611000       1.25822000      -0.31578000      -0.34081000      -0.33446000       0.41031000
H        0.34774000       2.52760000       1.62841000      -0.31372000      -0.43644000      -0.41229000
H       -0.65261000       2.40573000       0.15828000      -0.02961000      -0.30805000       0.06799000
C       -0.62292000      -0.07824000      -0.95407000      -2.43973000       2.30644000       1.18973000
C       -1.68092000       0.03165000      -0.00279000       0.80139000      -3.99614000      -0.33553000
H       -2.47655000       0.70790000      -0.12698000      -0.53105000       1.05576000      -0.14322000
H       -2.04115000      -0.98915000       0.40372000       0.63462000       1.83781000      -0.67118000
C        0.06058000      -1.29692000      -1.15859000       0.62626000      -0.79632000      -0.04372000
H       -0.52920000       0.74358000      -1.65193000       0.29319000      -0.18048000      -0.14942000
O       -0.08690000      -2.24701000      -0.41978000      -0.22229000      -0.74015000       0.65438000
C        1.02435000      -1.35921000      -2.28832000       0.97522000       0.27400000      -0.01466000
H        1.72899000      -0.52304000      -2.25427000      -0.20639000       0.03129000      -0.08236000
H        0.51220000      -1.35044000      -3.21884000      -0.65186000       0.37608000      -0.90244000
H        1.60020000      -2.26615000      -2.29429000       0.18915000      -0.45411000       0.38214000
124
Lattice="100.0 0.0 0.0 0.0 100.0 0.0 0.0 0.0 100.0" Properties=species:S:1:pos:R:3:forces:R:3 config_type=reactants_in_water energy=-82336.73097248 pbc="T T T"
C        5.65311000       7.12320000       6.75968000       0.71918000      -0.78181000       0.82315000
C        4.94359000       6.08433000       7.53797000      -1.78066000      -0.25002000       1.75221000
C        5.81180000       5.06015000       7.83356000       0.71169000       0.37101000      -0.83904000
H        4.02817000       6.29903000       8.14557000       1.00989000      -0.26451000      -0.80185000
C        6.97737000       5.26135000       7.01582000      -0.37630000      -0.67931000       0.20065000
H        5.62276000       4.17339000       8.43108000      -0.01347000       0.39174000       0.01018000
C        6.76223000       6.31877000       6.17106000      -0.05142000       0.32488000       0.27511000
H        7.78271000       4.53886000       7.00519000       0.01980000       0.16842000      -0.27404000
H        7.29538000       6.61890000       5.28772000       0.33561000       0.09583000       0.35471000
H        6.07618000       7.73625000       7.54985000       0.41978000       0.37724000       0.12082000
H        5.09405000       7.80081000       6.19516000      -0.66981000       0.62775000      -1.20638000
C        5.05218000       5.28735000       4.81129000      -0.13121000      -0.25390000      -0.08657000
C        3.98781000       5.32481000       5.65407000      -0.29727000      -0.99663000       0.62478000
H        3.31524000       6.18793000       5.66884000       0.09394000      -0.61357000      -0.10976000
H        3.67740000       4.35908000       6.12194000       0.12667000       1.27973000      -0.27870000
C        5.88319000       4.06161000       4.75531000      -1.17578000      -0.67063000      -0.25967000
H        5.14007000       6.02263000       3.98618000       0.49889000      -0.38682000       0.96419000
O        5.84002000       3.09633000       5.51440000       0.02118000       1.43854000      -0.43436000
C        6.74004000       4.06112000       3.53229000       0.61688000       0.12106000       1.07339000
H        7.53764000       4.76159000       3.77330000       0.19770000       0.23684000      -0.44215000
H        6.14333000       4.40404000       2.71365000      -0.20263000       0.13686000      -0.65996000
H        7.22822000       3.11562000       3.38539000      -0.04728000      -0.31961000      -0.23462000
O        3.21164000       5.34262000       2.56186000      -0.35146000       0.66441000      -0.75446000
H        3.14090000       6.00311000       3.22005000      -0.41255000       1.40765000       0.75735000
H        3.92494000       4.84821000       2.92336000       0.43112000      -1.19017000       0.03776000
O        1.37707000       8.13756000       7.14243000       1.47836000       1.42665000       0.74168000
H        1.73549000       7.63447000       6.44353000       0.82827000      -0.85855000      -1.19185000
H        0.50248000       7.84468000       7.19840000      -2.14506000      -0.58091000       0.40548000
O        8.06321000       4.07855000       0.88490000      -0.08978000       1.81424000      -1.31261000
H        7.93682000       3.18270000       1.08801000      -0.25565000      -1.91089000       0.44268000
H        7.74383000       4.58142000       1.62367000      -0.09887000       0.22550000       0.55441000
O        6.91466000       1.42510000       7.73654000      -0.02018000      -1.17379000      -0.24229000
H        7.15914000       0.91544000       6.94046000      -0.31139000       0.42108000       0.43480000
H        7.40234000       2.22632000       7.61044000       0.36893000       0.85077000      -0.14313000
O        2.72676000       8.28994000       2.13734000      -0.74581000       0.05181000       0.57220000
H        2.64956000       8.93547000       1.43777000       0.17075000       0.24150000      -0.32738000
H        1.88730000       8.40145000       2.61994000       0.53909000      -0.21057000      -0.14146000
O        6.16376000       5.57788000      10.90845000       0.01736000      -0.90713000       0.38039000
H        6.13655000       6.51712000      10.97694000      -0.01745000       1.04012000      -0.18097000
H        6.36952000       5.36620000       9.99954000       0.06480000       0.07536000      -0.27319000
O        2.95887000       3.35233000       1.40022000       0.91246000      -0.49240000      -1.87203000
H        3.09289000       3.52946000       0.43371000      -0.23590000      -0.09742000       1.37109000
H        2.74892000       2.41578000       1.39590000      -0.51635000      -0.08722000      -0.03986000
O        4.80086000       0.95934000       4.30654000      -0.43473000      -0.88201000      -1.44193000
H        4.82622000       0.67625000       3.33767000       0.11348000       0.17577000       1.80243000
H        4.50866000       0.18047000       4.79285000       0.23136000      -0.09980000      -0.00035000
O        9.55320000       2.92680000       3.63310000       0.71137000       1.10748000      -0.92936000