22
Lattice="100.0 0.0 0.0 0.0 100.0 0.0 0.0 0.0 100.0" Properties=species:S:1:pos:R:3:forces:R:3 config_type=vacuum energy=-11580.50706075 pbc="T T T"
C       -0.12027000       1.81047000       0.91412000       1.04000000       0.28650000      -0.24532000
C       -0.89206000       0.76843000       1.69938000      -1.29258000       2.59919000      -1.28884000
C       -0.02689000      -0.18187000       2.04033000       2.77046000      -2.06455000       0.69222000
H       -1.76680000       1.04541000       2.24610000      -0.39222000      -0.06481000       0.25136000
C        1.17559000      -0.06895000       1.27180000      -0.39232000      -2.63767000       1.55436000
H       -0.21927000      -0.99354000       2.71602000      -0.08031000      -0.14998000       0.14579000
C        1.02684000       0.90932000       0.39121000      -1.05061000       3.12887000      -1.03963000
H        1.94542000      -0.83676000       1.21403000      -0.20247000       0.24832000       0.27051000
H        1.75495000       1.27547000      -0.31275000       0.08249000      -0.05243000      -0.09193000
H        0.34274000       2.52730000       1.63299000      -0.23242000      -0.37501000      -0.38800000
H       -0.66613000       2.39513000       0.15352000       0.23679000      -0.42174000       0.43081000
C       -0.62685000      -0.08153000      -0.93939000      -1.77383000       2.28288000       0.33518000
C       -1.68513000       0.02915000      -0.02272000       0.45044000      -3.88874000       0.32414000
H       -2.47933000       0.70491000      -0.13198000      -0.58804000       1.16329000      -0.21485000
H       -2.04879000      -0.97349000       0.41156000       0.63264000       1.66602000      -0.71932000
C        0.05863000      -1.31659000      -1.15100000       0.82171000       1.64956000      -1.60612000
H       -0.53228000       0.73837000      -1.65008000       0.29232000      -0.35687000      -0.02408000
O       -0.08664000      -2.24385000      -0.43952000      -0.64282000      -3.05464000       2.48475000
C        1.01129000      -1.38389000      -2.28811000       1.20377000       1.75377000       0.08405000
H        1.72938000      -0.53146000      -2.27691000      -0.63747000      -0.32875000       0.03059000
H        0.49561000      -1.34496000      -3.20862000      -0.73165000       0.15447000      -1.11505000
H        1.60999000      -2.24709000      -2.27000000       0.52528000      -1.30658000       0.22575000
109
Lattice="100.0 0.0 0.0 0.0 100.0 0.0 0.0 0.0 100.0" Properties=species:S:1:pos:R:3:forces:R:3 config_type=reactants_in_water energy=-71932.82739009 pbc="T T T"
C        6.01852000       7.14410000       5.71534000       1.00752000      -0.45001000       0.34717000
C        5.66890000       6.59486000       7.06059000      -1.44747000      -0.71001000       1.03617000
C        6.61782000       5.76492000       7.53605000       0.57154000       0.05810000      -1.41680000
H        4.75691000       6.85223000       7.63886000       0.56753000      -0.30080000      -0.82220000
C        7.76194000       5.81577000       6.56315000      -0.05318000       0.19911000       0.44376000
H        6.53962000       5.03580000       8.33517000       0.12026000       0.56825000       0.21451000
C        7.43905000       6.64062000       5.54913000       0.25623000       0.02005000       0.59985000
H        8.73810000       5.33148000       6.71441000      -0.66890000      -0.00660000      -0.19166000
H        8.07273000       6.87062000       4.71285000      -0.03629000       0.00151000      -0.16780000
H        5.83306000       8.19793000       5.74100000       0.31521000       0.80712000      -0.08023000
H        5.48348000       6.81415000       4.81626000      -0.39822000      -0.16871000       0.68730000
C        4.62178000       4.47631000       4.32038000      -0.74905000       0.88112000       0.61873000
C        3.57618000       4.49698000       5.13072000      -0.84821000      -0.48249000       1.16615000
H        2.75138000       5.24173000       4.98099000       0.91799000      -0.87354000       0.19862000
H        3.52245000       3.81154000       6.01362000      -0.14274000       0.65346000      -0.97188000
C        5.85547000       3.70442000       4.45241000       0.53632000       0.69876000      -1.74820000
H        4.67927000       5.31320000       3.66953000      -0.03319000       0.30970000      -1.02615000
O        5.97224000       2.75471000       5.16899000       0.28040000      -1.17529000       0.83790000
C        6.91820000       4.21614000       3.47116000       0.63813000      -1.55184000       1.13535000
H        6.80987000       5.26197000       3.39909000       0.11501000       1.12164000      -0.43847000
H        6.78468000       3.75533000       2.49815000      -0.37705000       0.06648000      -0.13382000
H        7.93597000       3.97447000       3.81173000      -0.39518000       0.08895000       0.14783000
O        3.15284000       0.71877000       8.33893000      -0.79228000       0.36377000      -2.19538000
H        3.02282000       0.45230000       9.21930000      -0.26344000      -0.67938000       1.80043000
H        2.36530000       0.38464000       7.85271000       0.86505000       0.20485000       0.35078000
O        1.96072000      10.34266000       4.45648000      -0.22300000      -0.36869000       0.53386000
H        1.43910000       9.53389000       4.55341000       0.03479000       0.22985000       0.01245000
H        2.52263000      10.15977000       3.71118000       0.42946000      -0.18727000      -0.57321000
O        1.84564000       6.66753000       1.70527000       0.35927000       0.86148000       0.20156000
H        2.00722000       7.56688000       1.35680000      -0.33865000      -0.59335000       0.32167000
H        1.61651000       6.14165000       0.94759000      -0.15524000      -0.28613000      -0.44313000
O        1.63433000       3.31351000       7.67180000       0.32711000      -1.32596000       1.30079000
H        1.72700000       2.44216000       7.24165000      -0.13755000       0.67564000      -0.27240000
H        1.85849000       3.00951000       8.58643000      -0.10218000       0.66353000      -1.03319000
O        5.07060000       9.29784000       3.74056000      -0.75363000      -0.37712000      -1.37525000
H        5.97578000       9.02033000       3.76147000       0.81937000      -0.38451000      -0.21853000
H        4.95843000       9.87563000       4.46627000      -0.27742000       0.91656000       1.25603000
O        3.41954000       7.01768000      14.45127000       0.72416000      -1.80308000       1.28796000
H        3.37481000       7.91929000      14.66044000      -0.09937000       1.88599000       0.42374000
H        3.03528000       6.92200000      13.60866000      -0.69989000      -0.09346000      -1.71600000
O        7.62427000       7.48705000       2.36127000       1.27411000       0.93097000       0.35197000
H        8.37700000       7.97263000       1.93904000      -1.28777000      -0.74649000       0.32702000
H        6.90289000       7.42955000       1.74175000      -0.17561000      -0.07177000      -0.68604000
O        0.96173000       0.15290000       5.64747000       0.00731000       0.67054000       0.24812000
H        0.51790000       0.56667000       4.89742000       0.06782000      -0.19940000       0.16331000
H        1.15840000      -0.74461000       5.40269000      -0.05455000      -0.49614000      -0.29892000
O        4.80865000       3.62417000       1.19112000      -0.56091000      -0.89166000       0.01221000
H        4.42192000       2.73308000       1.33194000       0.46893000       0.68087000      -0.19137000
H        4.38664000       4.15101000       1.87200000      -0.10577000       0.23142000       0.22217000
O        3.19447000       9.42103000       0.94148000      -1.17399000       0.05588000      -0.45986000
H        3.58683000       8.57131000       0.82923000       0.51010000      -1.15658000      -0.34061000
H        3.84728000       9.85663000       1.45467000       0.89289000       0.90356000       0.91550000
O        5.29938000       6.00244000      -0.19741000       0.28067000       1.85400000      -1.09166000
H        5.21280000       6.46537000      -1.08234000      -0.13736000      -1.53010000       1.64165000
H        4.87697000       5.13927000      -0.13682000      -0.02088000      -0.12527000      -0.50942000
O        2.51093000       7.13410000      10.97651000       0.63356000       0.19893000       0.21646000
H        1.78213000       6.51792000      11.01871000      -0.55006000       0.09143000      -0.29887000
H        2.27639000       7.94368000      10.50490000      -0.34989000      -0.51266000       0.07126000
O       10.57295000       8.24029000       7.30216000      -1.74510000      -0.80635000      -1.07885000
H       10.09310000       8.77360000       6.58647000       0.69317000      -1.15769000       1.39603000
H       10.09327000       7.34344000       7.31822000       1.06320000       2.11380000      -0.23966000
O       11.25110000       3.09127000       6.45747000       0.54268000      -1.10373000      -1.99113000
H       11.51426000       2.31762000       5.87909000      -0.72509000       1.38688000       0.66952000
H       11.37614000       2.71192000       7.31159000      -0.05199000      -0.39703000       1.19450000
O        6.25352000       1.91941000      10.02470000       0.12117000      -1.47433000      -1.27879000
H        5.96758000       1.23979000       9.36445000       0.66993000       0.87037000       0.65594000
H        5.43313000       2.25193000      10.33966000      -0.95716000       0.67219000       0.55362000
O        2.86162000      10.28095000       7.62169000      -0.80974000      -0.07570000      -1.60371000
H        2.64008000      10.44960000       6.67614000      -0.08840000      -0.30295000       0.84801000
H        3.79723000      10.50942000       7.63799000       0.43604000       0.11088000       0.28527000
O       10.00797000       1.05140000       4.07855000       0.76531000       1.38085000      -1.33838000
H        9.08490000       1.15608000       4.33352000       0.13224000       0.08390000      -0.20497000
H       10.18770000       1.68122000       3.30832000      -0.70505000      -1.41571000       1.71728000
O        7.71974000       8.62188000       8.96507000       1.63825000      -0.47233000       0.02657000
H        8.63680000       8.93179000       9.26308000      -1.77828000      -0.29156000      -0.16112000
H        7.79360000       7.64333000       8.89814000      -0.29723000       0.94206000       0.08512000
O        4.60523000       0.64645000       3.46439000      -1.26210000      -1.12804000      -1.51852000
H        4.88196000       1.11665000       4.22240000       0.54874000       0.96770000       1.52832000
H        3.74632000       0.23576000       3.69221000       0.86959000       0.39148000      -0.11278000
O        0.56314000      12.83954000       4.60528000       0.14905000       0.72814000      -0.24202000
H        1.30577000      12.34510000       4.26474000       0.25381000      -0.17459000      -0.04927000
H       -0.01848000      12.15280000       4.88953000      -0.64472000      -0.57768000       0.36877000
O        0.74536000       4.18932000      10.87203000       1.59862000      -0.82975000       1.26008000
H        1.56165000       3.69343000      11.18414000      -1.63061000       1.01650000      -0.84493000
H        0.72552000       4.17941000       9.91829000       0.14706000      -0.11873000      -0.45479000
O        7.53167000       0.80075000       2.16572000      -0.81176000      -0.82635000       0.01961000
H        7.63160000       1.63150000       2.62614000      -0.26182000       0.18091000       0.23879000
H        6.70444000       0.38222000       2.49958000       0.80014000       0.70285000      -0.22313000
O        8.28408000       9.68295000       6.30474000      -0.76379000      -0.46778000       0.56274000
H        7.66384000       9.59897000       5.56717000       0.33679000      -0.10758000       0.27190000
H        7.90077000       9.12251000       7.03746000       0.47829000       0.64206000      -0.66928000
O        1.01809000      -2.38185000       1.40317000       1.02630000      -1.86746000      -0.30737000
H        0.91097000      -3.34515000       1.09909000       0.41732000       2.24981000       0.71299000
H        1.98276000      -2.27138000       1.61181000      -1.39736000      -0.36905000      -0.46038000
O        5.42684000      10.67712000       7.71416000       1.38491000      -1.07623000       0.41279000
H        5.85749000       9.96683000       8.27090000      -0.35193000       1.14038000      -0.84196000
H        6.12805000      11.09351000       7.18875000      -0.15197000      -0.25620000       0.44275000
O       10.09279000      10.13992000       9.75924000      -0.49216000       0.54034000      -0.20886000
H        9.77940000      11.05219000       9.54493000       0.46857000      -1.34712000      -0.06674000
H       10.27029000       9.64397000       8.94156000       0.40755000       0.50896000      -0.12365000
O        8.89663000       2.72258000       9.70085000      -0.08942000      -1.65875000      -1.09776000
H        9.41540000       3.42071000      10.02696000       0.34318000       1.43337000       0.87185000
H        7.98265000       2.70049000      10.00393000       0.03461000       0.28155000       0.23594000
O        1.46704000      11.96660000       9.22773000       0.42690000      -0.67243000       0.51559000
H        1.64227000      11.47564000      10.06938000      -0.09364000       0.54249000      -1.44382000
H        1.94058000      11.47780000       8.50099000      -0.41417000       0.24723000       1.16926000
O       11.44829000       0.72249000       9.45853000       1.56156000      -0.03173000      -0.34188000
H       12.04707000       1.38047000       9.81754000       0.62232000      -0.13888000      -0.07278000
H       10.65207000       1.07334000       9.79205000      -2.21756000       0.40730000       0.37644000
118
Lattice="100.0 0.0 0.0 0.0 100.0 0.0 0.0 0.0 100.0" Properties=species:S:1:pos:R:3:forces:R:3 config_type=reactants_in_water energy=-78176.51095562 pbc="T T T"
C        4.50178000       8.50576000       7.06316000       1.14619000       1.52900000      -0.70824000
C        5.13737000       7.21381000       7.40755000       3.29050000       0.43246000      -0.14195000
C        6.50734000       7.40931000       7.64342000      -3.20050000       1.06296000      -0.17220000
H        4.68149000       6.28290000       7.20403000      -0.49488000      -0.80570000       0.19408000
C        6.72963000       8.86438000       7.63589000       0.49307000       0.06121000      -0.21603000
H        7.30401000       6.70971000       7.78813000      -0.06317000      -0.48448000       0.06937000
C        5.61226000       9.54673000       7.32043000      -0.05606000      -0.56855000       0.25530000
H        7.70735000       9.32494000       7.78501000      -0.38961000      -0.12516000      -0.03382000
H        5.62663000      10.63079000       7.14051000      -0.54317000      -0.68407000       0.11600000
H        3.51059000       8.72703000       7.42374000      -0.19130000      -0.01384000       0.43794000
H        4.44606000       8.55851000       5.95568000      -0.27367000      -0.25001000       0.22397000
C        4.88422000       6.62350000       3.49129000       0.60580000       1.70155000       0.09284000
C        3.78166000       7.26528000       3.10698000      -0.33432000       1.23367000       0.44876000
H        3.46452000       8.29984000       3.44206000       0.91343000      -1.29856000      -0.24501000
H        3.06399000       6.86315000       2.43281000      -0.40782000      -0.75844000      -0.35763000
C        5.30531000       5.25364000       3.05707000      -0.51468000       1.09829000       1.58828000
H        5.60640000       7.23430000       4.08838000      -0.55763000      -0.95726000      -0.21139000
O        4.67532000       4.61461000       2.26531000      -0.81484000      -1.10021000      -1.29379000
C        6.47736000       4.75101000       3.78447000       1.02985000       2.13162000       0.65491000
H        6.30071000       4.71634000       4.86242000      -0.30929000      -0.04455000      -0.09833000
H        7.23354000       5.57255000       3.67682000      -0.23758000      -0.92938000      -0.07202000
H        6.81726000       3.82436000       3.44261000       0.64199000      -1.30784000      -0.61540000
O        9.87257000       5.50682000       3.36727000      -0.52648000       2.49859000      -0.25332000
H       10.23648000       4.67329000       3.48247000       1.25333000      -2.71442000       0.58535000
H        9.20744000       5.35975000       2.69867000      -0.45564000       0.32850000      -0.49252000
O        1.04941000       5.19792000       9.67687000      -0.99475000       1.18255000       0.95101000
H        0.77957000       5.33610000       8.78761000      -0.57490000       0.46298000      -1.19028000
H        1.57872000       4.43720000       9.57054000       1.60063000      -1.53873000       0.24419000
O        5.74287000       1.88358000       1.89659000       0.29068000       0.45500000      -0.50047000
H        5.16981000       1.13184000       2.01254000      -0.29703000      -0.22500000       0.20299000
H        5.19953000       2.68935000       1.97470000       0.21219000      -0.06341000       0.18424000
O        4.97031000       9.48278000      10.93905000       0.18920000      -1.47436000       0.88019000
H        5.34759000       8.58316000      10.80738000      -0.44811000       1.08380000      -0.11357000
H        5.06389000       9.93083000      10.11274000       0.24291000       0.32425000      -0.95496000
O        1.83841000       6.18301000       6.55358000      -0.59548000      -0.91770000       0.63368000
H        1.65917000       6.83766000       7.23150000       0.21688000       0.24539000       0.30578000
H        2.35741000       6.60290000       5.89194000       0.59242000       0.66303000      -0.85132000
O        1.18548000       5.55207000       1.40951000      -1.41435000       2.03255000       0.61157000
H        0.72818000       4.88231000       1.89070000      -0.32391000      -0.80967000       0.60351000
H        1.85505000       5.12456000       0.94566000       1.80215000      -1.34871000      -1.17404000
O        8.13447000       7.01070000       1.50843000       1.98043000       0.38706000       0.24222000
H        8.79878000       7.57778000       1.99372000      -1.20445000      -0.83220000      -0.87201000
H        7.31899000       7.16643000       1.95665000      -0.85761000       0.42294000       0.45828000
O        7.33683000       0.10414000       5.27505000       1.83798000       0.40319000      -1.09691000
H        7.64812000      -0.34602000       4.46018000       0.16971000       0.79977000       0.55672000
H        6.60140000      -0.38867000       5.51533000      -2.14526000      -1.30690000       1.16184000
O        2.95062000       3.21631000       9.08140000       0.86290000       0.37979000       0.81565000
H        3.66319000       2.86675000       9.64879000      -0.54874000       0.46057000      -0.38286000
H        2.48814000       2.42337000       8.81666000      -0.33381000      -0.64375000      -0.12432000
O        1.32725000       9.32798000       1.93793000       0.69174000       0.44508000      -1.48458000
H        0.93797000       9.00477000       2.72666000      -0.57997000      -0.53212000       1.20593000
H        1.54561000       8.55394000       1.40602000      -0.20344000       0.05348000       0.18144000
O        5.03761000      -1.44476000       7.62007000       0.94456000       0.33459000       1.72548000
H        4.36197000      -1.23607000       7.01487000      -1.25217000       0.32181000      -1.20397000
H        4.85773000      -0.90126000       8.41555000       0.27942000      -0.52002000      -0.71413000
O       -0.40801000       0.36273000       7.11098000      -0.01116000      -0.36690000       0.92578000
H       -1.26901000       0.17999000       7.51232000       0.31006000       0.12962000      -0.15497000
H       -0.58356000       0.76926000       6.27108000      -0.11908000       0.30976000      -0.54670000
O       10.98924000       7.95921000       1.43739000      -0.36802000       0.21858000       2.02196000
H       11.28571000       7.82277000       0.57264000       0.45243000      -0.17854000      -2.24355000
H       11.39831000       7.24297000       1.92728000      -0.18701000      -0.22262000       0.44221000
O       -0.90924000       1.20282000       1.68597000       0.21674000      -1.31307000      -0.23230000
H       -0.56049000       1.29851000       2.56966000       0.39229000       0.20909000       0.30206000
H       -1.34385000       2.01123000       1.49886000      -0.62118000       1.16417000      -0.22004000
O       10.57295000       2.46801000       3.59734000       0.20505000       0.12036000       2.13658000
H       11.13621000       1.96426000       3.02589000       0.43837000      -0.31172000      -0.68513000
H       10.82234000       2.15738000       4.50887000      -0.35842000       0.72371000      -1.25116000
O       12.44751000       6.38994000      14.16541000      -0.85093000      -1.04955000       0.31637000
H       12.02432000       5.80669000      14.83302000       0.39148000       0.67155000      -0.45467000
H       11.88469000       6.18765000      13.40228000       0.25718000       0.24946000       0.16449000
O       10.85094000       4.42832000       8.91589000      -0.71661000       0.62654000      -0.53433000
H       11.64659000       4.37062000       9.40503000       1.28717000      -0.65963000       0.95472000
H       10.88917000       5.36324000       8.68682000      -0.49475000       0.00954000      -0.31857000
O        1.43321000       2.45731000       2.87961000      -2.37282000      -1.39413000      -1.80104000
H        1.58269000       2.27515000       1.90309000       0.31069000       0.58765000       1.74823000
H        2.16883000       2.85226000       3.27035000       1.93697000       0.97794000       0.79481000
O        8.75123000       8.91657000       3.75236000      -0.92649000       0.27703000      -0.03269000
H        9.03419000       8.09866000       4.14409000       0.43680000      -0.50185000       0.22320000
H        9.44872000       9.24712000       3.18982000       0.42764000       0.31882000       0.03147000
O        2.85330000       3.05861000       6.00186000       1.32362000       1.29951000      -1.20843000
H        2.29591000       2.41100000       6.35786000      -1.31092000      -1.02528000       0.95071000
H        2.67307000       3.90724000       6.42496000      -0.24368000      -0.19909000       0.18518000
O        9.87870000       4.78443000      15.05004000      -0.16972000      -0.08799000      -0.38721000
H       10.14306000       4.08439000      15.63426000       0.37699000      -0.29865000       0.82326000
H        9.39510000       4.26728000      14.39824000      -0.16588000       0.31950000      -0.31272000
O        8.11377000      12.50787000       2.06308000      -1.23403000       0.99046000       0.55942000
H        8.81422000      11.94674000       1.78915000       0.93361000      -1.01750000      -0.03048000
H        7.87217000      12.27692000       2.97202000       0.32305000      -0.15786000      -0.50235000
O        1.31345000       9.46613000       5.60234000       0.96804000      -0.26597000       1.65097000
H        1.41469000       8.98891000       6.45962000      -0.61463000       0.01806000      -0.91052000
H        1.84637000      10.24126000       5.85384000      -0.36406000       0.14759000      -0.74162000
O       10.77622000      10.55934000       2.46379000       0.56115000       0.91615000      -0.06462000
H       11.16906000       9.74808000       2.10558000       0.17302000       0.19591000      -0.20620000
H       11.45577000      11.26852000       2.49029000      -0.70944000      -0.99885000      -0.06912000
O        8.81946000       1.61689000       1.03533000      -1.78750000       0.01803000       0.06543000
H        7.88903000       1.64653000       1.41244000       1.30405000       0.08711000      -0.41364000
H        8.66746000       1.76752000       0.08839000       0.27904000      -0.14908000       0.43894000
O        2.19034000      13.20072000       5.69641000       1.43710000      -0.49902000      -0.38817000
H        3.12144000      13.43750000       5.47859000      -1.15494000      -0.19683000       0.26522000
H        1.78059000      14.00152000       5.99766000      -0.24820000       0.55273000       0.17746000
O        1.75168000       8.17515000      11.96818000       2.24051000       1.27433000       0.71687000
H        2.64114000       8.55296000      12.25627000      -1.55161000      -0.20928000      -1.02936000
H        1.66303000       7.53908000      12.66719000      -0.67825000      -0.80789000       0.30481000
O        9.12379000       0.02101000       3.40715000       0.75079000      -0.29193000      -0.50345000
H        9.26449000       0.42382000       2.52772000      -0.02747000      -0.05327000       0.56898000
H        9.75328000       0.43130000       4.02141000      -0.69710000      -0.12141000      -0.56104000
O        1.49345000       8.12057000       9.14150000       0.41772000       1.07349000      -0.92290000
H        1.12042000       7.46574000       9.69698000      -0.71191000      -1.58331000       0.69651000
H        1.90728000       8.64563000       9.82630000       0.32578000       0.43252000      -0.02593000
O        2.22545000       0.68035000       8.66751000       0.72258000      -1.07809000      -1.26994000
H        1.40698000       0.31740000       8.28770000      -0.12537000       0.21107000       0.09958000
H        2.91147000       0.31809000       8.05589000      -0.75267000       0.52463000       0.79193000
O        8.29387000      10.57800000      10.02007000       0.30124000       0.95195000      -0.41928000
H        8.15829000       9.72581000      10.41888000       0.27938000      -0.41595000       0.20265000
H        9.23282000      10.72386000       9.81859000      -0.55811000      -0.44120000       0.33835000
O        2.23984000       2.56370000       0.36455000       0.20637000       0.84402000       1.10242000
H        3.16849000       2.45064000       0.19259000       0.41516000      -0.16546000      -0.33906000
H        1.72003000       2.22897000      -0.33328000      -0.60704000      -0.68093000      -1.35508000
118
Lattice="100.0 0.0 0.0 0.0 100.0 0.0 0.0 0.0 100.0" Properties=species:S:1:pos:R:3:forces:R:3 config_type=reactants_in_water energy=-78177.41647487 pbc="T T T"
C        6.03837000       6.23352000       3.40399000       2.57172000       1.45094000       1.77674000
C        5.45084000       6.29099000       4.81028000       0.43222000       0.57394000       2.14782000
C        6.75708000       6.27457000       5.68788000      -0.66891000      -0.77632000      -4.02310000
H        4.72288000       7.08333000       5.14658000       0.71466000      -0.93570000      -0.76595000
C        7.69386000       5.61918000       4.97091000      -1.51637000       0.80131000       1.13303000
H        6.84410000       6.66373000       6.63881000       0.11475000       0.68222000       1.84746000
C        7.05490000       5.12296000       3.67321000      -0.58588000      -0.49711000       1.23308000
H        8.60803000       5.44614000       5.49081000       0.74687000      -0.59866000      -0.69187000
H        7.73191000       4.91581000       2.86185000       0.06607000      -0.41537000      -0.12303000
H        6.56078000       7.14060000       3.07086000      -0.35576000      -0.09025000       0.18808000
H        5.36508000       5.90873000       2.72181000      -2.29808000      -0.77572000      -2.26359000
C        5.97548000       3.99305000       4.15577000       1.45628000      -0.38813000      -0.41952000
C        4.95875000       4.84416000       4.95194000       1.07008000      -2.02362000       1.26143000
H        4.11025000       4.61273000       4.39748000      -2.21529000       0.31408000      -0.40075000
H        4.86459000       4.38170000       5.97737000      -0.05447000       1.06845000      -0.92040000
C        6.60175000       2.70898000       4.75404000       0.89103000       1.37087000      -0.58549000
H        5.47853000       3.57480000       3.26559000       0.22800000       0.29888000      -0.05057000
O        6.31864000       2.19556000       5.81111000      -0.75115000       0.01662000       0.19577000
C        7.79216000       2.15734000       3.98943000      -0.61487000       0.19079000      -0.90114000
H        7.73412000       2.14445000       2.87526000      -0.47372000      -0.20937000       0.82520000
H        7.96582000       1.18437000       4.42076000       0.59778000      -0.25309000      -0.21301000
H        8.60014000       2.85205000       4.15033000       0.55738000       0.09300000       0.53392000
O       10.24494000      11.44434000       1.69315000      -0.53805000      -1.86188000       1.38868000
H       10.24104000      10.57599000       2.21901000       0.09207000       1.91875000      -1.17789000
H        9.31917000      11.73449000       1.74993000       0.43104000       0.02616000      -0.07251000
O        4.45679000       7.38926000      10.14636000      -0.14402000      -0.56291000      -0.07672000
H        3.86292000       7.45060000       9.39443000       0.00348000       0.13163000      -0.07178000
H        4.35333000       8.19814000      10.64801000       0.29469000       0.29862000       0.15284000
O        1.51981000       3.00534000       1.99247000       0.90882000      -0.91571000       2.34433000
H        0.96323000       2.66957000       1.32691000      -1.05768000      -0.48853000      -1.46579000