22
Lattice="100.0 0.0 0.0 0.0 100.0 0.0 0.0 0.0 100.0" Properties=species:S:1:pos:R:3:forces:R:3 config_type=vacuum energy=-11581.1144386 pbc="T T T"
C        1.56588000       1.26148000       1.31424000       0.88682000      -0.50032000       2.20872000
C        0.60624000       0.64832000       2.34074000       1.38764000      -0.88852000      -1.15247000
C        0.48321000      -0.66184000       2.04539000      -0.60723000      -0.28817000      -1.26767000
H        0.23898000       1.21543000       3.15923000      -0.72538000       0.19760000       0.32385000
C        1.35252000      -1.02433000       0.85439000       0.00336000       1.86221000       1.82555000
H       -0.29354000      -1.35269000       2.37705000       0.50481000       0.21957000       0.48208000
C        2.05606000       0.10105000       0.56175000      -1.80220000      -2.00676000      -0.43881000
H        1.44009000      -2.00866000       0.41673000       0.11609000       0.09300000       0.11030000
H        2.80102000       0.08561000      -0.16812000       1.05246000       0.47220000      -1.10467000
H        2.45509000       1.74040000       1.76672000      -0.61669000       0.28521000       0.02246000
H        0.98710000       1.97177000       0.76252000      -0.06568000       0.57242000      -0.70890000
C       -0.99623000       0.51800000      -0.86072000       1.29279000       0.55326000      -0.72195000
C       -1.75300000       0.89789000       0.13221000      -1.55528000      -1.44778000       0.22900000
H       -1.75117000       1.82007000       0.63922000       0.11916000       0.90876000       0.36466000
H       -2.49582000       0.12242000       0.39921000       0.35745000       0.74267000       0.29776000
C       -1.10693000      -0.84381000      -1.39275000      -1.56337000      -0.92811000       0.60412000
H       -0.17862000       1.07857000      -1.30277000      -0.14919000       0.35564000       0.25982000
O       -2.06112000      -1.55679000      -1.11129000       0.94249000       0.18553000      -0.37638000
C        0.00098000      -1.22807000      -2.29591000      -0.45394000       0.43627000      -0.49208000
H       -0.19462000      -0.63294000      -3.18988000       0.59890000       0.46883000      -0.00288000
H       -0.09273000      -2.21900000      -2.66142000       0.08693000      -1.13393000       0.12609000
H        0.93725000      -1.00153000      -1.79286000       0.13061000       0.01977000      -0.46075000
22
Lattice="100.0 0.0 0.0 0.0 100.0 0.0 0.0 0.0 100.0" Properties=species:S:1:pos:R:3:forces:R:3 config_type=vacuum energy=-11581.1144386 pbc="T T T"
C        1.56588000       1.26148000       1.31424000       0.88682000      -0.50032000       2.20872000
C        0.60624000       0.64832000       2.34074000       1.38764000      -0.88852000      -1.15247000
C        0.48321000      -0.66184000       2.04539000      -0.60723000      -0.28817000      -1.26767000
H        0.23898000       1.21543000       3.15923000      -0.72538000       0.19760000       0.32385000
C        1.35252000      -1.02433000       0.85439000       0.00336000       1.86221000       1.82555000
H       -0.29354000      -1.35269000       2.37705000       0.50481000       0.21957000       0.48208000
C        2.05606000       0.10105000       0.56175000      -1.80220000      -2.00676000      -0.43881000
H        1.44009000      -2.00866000       0.41673000       0.11609000       0.09300000       0.11030000
H        2.80102000       0.08561000      -0.16812000       1.05246000       0.47220000      -1.10467000
H        2.45509000       1.74040000       1.76672000      -0.61669000       0.28521000       0.02246000
H        0.98710000       1.97177000       0.76252000      -0.06568000       0.57242000      -0.70890000
C       -0.99623000       0.51800000      -0.86072000       1.29279000       0.55326000      -0.72195000
C       -1.75300000       0.89789000       0.13221000      -1.55528000      -1.44778000       0.22900000
H       -1.75117000       1.82007000       0.63922000       0.11916000       0.90876000       0.36466000
H       -2.49582000       0.12242000       0.39921000       0.35745000       0.74267000       0.29776000
C       -1.10693000      -0.84381000      -1.39275000      -1.56337000      -0.92811000       0.60412000
H       -0.17862000       1.07857000      -1.30277000      -0.14919000       0.35564000       0.25982000
O       -2.06112000      -1.55679000      -1.11129000       0.94249000       0.18553000      -0.37638000
C        0.00098000      -1.22807000      -2.29591000      -0.45394000       0.43627000      -0.49208000
H       -0.19462000      -0.63294000      -3.18988000       0.59890000       0.46883000      -0.00288000
H       -0.09273000      -2.21900000      -2.66142000       0.08693000      -1.13393000       0.12609000
H        0.93725000      -1.00153000      -1.79286000       0.13061000       0.01977000      -0.46075000
22
Lattice="100.0 0.0 0.0 0.0 100.0 0.0 0.0 0.0 100.0" Properties=species:S:1:pos:R:3:forces:R:3 config_type=vacuum energy=-11581.00843442 pbc="T T T"
C        0.54383000       2.24656000       1.38304000      -0.23990000       1.00986000      -1.15907000
C       -0.28357000       1.26096000       2.09235000       0.47991000      -0.83418000       1.39514000
C        0.35476000       0.08475000       2.03190000       0.49702000       0.87440000      -2.00514000
H       -1.14693000       1.47557000       2.71090000       0.16384000       0.17314000      -0.14055000
C        1.46140000       0.17703000       1.00796000      -0.94992000      -1.27538000       2.43872000
H        0.09659000      -0.82567000       2.45870000      -0.62536000      -1.35467000       0.84725000
C        1.49834000       1.42066000       0.57966000       1.75032000       0.76499000      -0.99097000
H        2.16026000      -0.64642000       0.93415000      -0.06697000       0.16118000      -0.74347000
H        2.29123000       1.74907000      -0.11844000      -0.77732000       0.32154000       0.55937000
H        1.14669000       2.83637000       2.08983000      -0.18645000      -0.02417000      -0.06122000
H       -0.04888000       2.94249000       0.80325000      -0.05569000       0.34062000      -0.22816000
C       -1.29766000      -0.54277000      -1.40536000      -1.40960000      -0.14578000       1.64936000
C       -2.44840000      -0.59147000      -0.70803000       1.26121000       1.14002000      -1.36427000
H       -3.19779000       0.13809000      -0.87972000      -0.50566000       0.77602000       0.07307000
H       -2.62029000      -1.27202000       0.06976000      -0.21931000      -1.35748000       0.48587000
C       -0.36688000      -1.66237000      -1.20077000       1.53931000       0.68961000      -1.16142000
H       -0.98330000       0.35817000      -1.90382000      -0.15933000      -0.20316000      -0.70844000
O       -0.58285000      -2.55338000      -0.43446000      -0.24819000      -0.91700000       0.70998000
C        0.94433000      -1.57453000      -1.99116000       1.35997000       0.92347000       2.02141000
H        1.28168000      -0.49959000      -1.94207000      -0.38919000      -0.96031000      -0.30211000
H        0.91766000      -1.89515000      -3.01780000      -0.22107000      -0.25491000      -0.30140000
H        1.73146000      -2.12760000      -1.40265000      -0.90342000       0.24885000      -0.85785000
22
Lattice="100.0 0.0 0.0 0.0 100.0 0.0 0.0 0.0 100.0" Properties=species:S:1:pos:R:3:forces:R:3 config_type=vacuum energy=-11567.59780242 pbc="T T T"
C       -0.00351000       1.32418000       2.35000000      -1.95405000       0.08914000       0.19726000
C       -0.13795000       1.11158000       0.88516000      -1.31942000       1.11560000      -0.00196000
C        0.64547000       0.09184000       0.55414000      -0.52837000       5.33253000       9.82918000
H       -0.93357000       1.58331000       0.29076000       0.78458000      -0.07408000       0.17370000
C        1.32090000      -0.39383000       1.69007000       0.48766000      -1.87764000       2.26527000
H      -18.08085000      50.36353000      -7.81878000       0.00153000      -0.00447000       0.00063000
C        0.92145000       0.26516000       2.81738000       0.79159000      -1.33056000      -0.33831000
H        1.81356000      -1.37460000       1.60417000       0.44364000       0.83963000       0.43528000
H        1.31073000       0.05097000       3.84006000      -0.63271000       0.38190000      -1.04848000
H       -1.04173000       1.49338000       2.77672000       1.17951000      -0.88178000       0.02131000
H        0.42971000       2.25124000       2.59108000       0.84935000       1.62124000       0.09199000
C       -0.14284000      -2.54949000      -0.77581000       0.82881000      -0.50229000       3.32761000
C       -1.12303000      -3.14506000      -1.44711000       0.19742000      -1.05549000      -0.33448000
H       -1.31036000      -4.22071000      -1.26161000      -0.61237000       0.96075000      -0.42340000
H       -1.47460000      -2.34573000      -2.16792000      -1.12938000      -4.00158000       0.85955000
C        0.02528000      -1.20857000      -1.11188000      -3.84841000      -3.41045000      -5.23566000
H        0.33926000      -2.85233000       0.17520000      -0.12104000      -0.48871000      -0.99383000
O        0.71376000      -0.42524000      -0.53385000       3.00246000      -0.45469000      -8.15475000
C       -0.80399000      -0.86760000      -2.36025000       2.51169000       5.58720000       1.23808000
H       -1.79178000      -0.90751000      -1.98349000      -1.24347000       0.32938000      -0.08605000
H       -0.55153000      -1.57592000      -3.05802000       0.39072000      -0.74427000      -2.29305000
H       -0.68294000       0.20239000      -2.73516000       0.35008000      -1.49757000       0.47037000
22
Lattice="100.0 0.0 0.0 0.0 100.0 0.0 0.0 0.0 100.0" Properties=species:S:1:pos:R:3:forces:R:3 config_type=vacuum energy=-11580.50706075 pbc="T T T"
C       -0.12027000       1.81047000       0.91412000       1.04000000       0.28650000      -0.24532000
C       -0.89206000       0.76843000       1.69938000      -1.29258000       2.59919000      -1.28884000
C       -0.02689000      -0.18187000       2.04033000       2.77046000      -2.06455000       0.69222000
H       -1.76680000       1.04541000       2.24610000      -0.39222000      -0.06481000       0.25136000
C        1.17559000      -0.06895000       1.27180000      -0.39232000      -2.63767000       1.55436000
H       -0.21927000      -0.99354000       2.71602000      -0.08031000      -0.14998000       0.14579000
C        1.02684000       0.90932000       0.39121000      -1.05061000       3.12887000      -1.03963000
H        1.94542000      -0.83676000       1.21403000      -0.20247000       0.24832000       0.27051000
H        1.75495000       1.27547000      -0.31275000       0.08249000      -0.05243000      -0.09193000
H        0.34274000       2.52730000       1.63299000      -0.23242000      -0.37501000      -0.38800000
H       -0.66613000       2.39513000       0.15352000       0.23679000      -0.42174000       0.43081000
C       -0.62685000      -0.08153000      -0.93939000      -1.77383000       2.28288000       0.33518000
C       -1.68513000       0.02915000      -0.02272000       0.45044000      -3.88874000       0.32414000
H       -2.47933000       0.70491000      -0.13198000      -0.58804000       1.16329000      -0.21485000
H       -2.04879000      -0.97349000       0.41156000       0.63264000       1.66602000      -0.71932000
C        0.05863000      -1.31659000      -1.15100000       0.82171000       1.64956000      -1.60612000
H       -0.53228000       0.73837000      -1.65008000       0.29232000      -0.35687000      -0.02408000
O       -0.08664000      -2.24385000      -0.43952000      -0.64282000      -3.05464000       2.48475000
C        1.01129000      -1.38389000      -2.28811000       1.20377000       1.75377000       0.08405000
H        1.72938000      -0.53146000      -2.27691000      -0.63747000      -0.32875000       0.03059000
H        0.49561000      -1.34496000      -3.20862000      -0.73165000       0.15447000      -1.11505000
H        1.60999000      -2.24709000      -2.27000000       0.52528000      -1.30658000       0.22575000
22
Lattice="100.0 0.0 0.0 0.0 100.0 0.0 0.0 0.0 100.0" Properties=species:S:1:pos:R:3:forces:R:3 config_type=vacuum energy=-11580.99355954 pbc="T T T"
C       -0.25972000       2.15339000       1.55698000      -0.29930000       2.15236000       0.02224000
C       -0.40635000       0.99435000       2.43360000       0.26555000      -2.26277000       0.49804000
C        0.76529000       0.31400000       2.41313000      -1.12639000      -1.13884000       2.23478000
H       -1.29429000       0.61922000       2.98969000       0.69930000       0.71869000      -0.70278000
C        1.75502000       1.00799000       1.65563000      -0.14951000       0.35999000      -0.14396000
H        0.94188000      -0.57551000       3.05250000       0.00599000       0.63607000      -0.75049000
C        1.18784000       2.07443000       1.07725000       0.71884000       1.00160000      -0.84147000
H        2.78558000       0.74192000       1.68498000       0.55436000      -0.17853000      -0.35305000
H        1.81132000       2.79717000       0.46175000      -1.44904000      -0.76662000       0.83509000
H       -0.35366000       3.06370000       2.23394000       0.06508000      -0.68144000      -0.86530000
H       -1.07772000       2.24011000       0.81485000       0.63841000       0.06272000       0.13405000
C       -1.48008000      -1.14890000      -2.00943000       1.40252000       0.87291000       0.31758000
C       -2.37849000      -2.08098000      -2.22108000       0.48227000       0.82752000      -0.22986000
H       -3.25221000      -2.09346000      -2.77565000      -1.60808000       1.04357000      -1.08292000
H       -2.19334000      -3.02664000      -1.86811000       0.77745000      -2.06756000       1.19347000
C       -0.20800000      -1.58456000      -1.29198000      -0.25232000      -1.97480000       1.19080000
H       -1.47015000      -0.10462000      -2.37147000      -0.40595000      -0.76302000       0.07424000
O       -0.20694000      -2.56902000      -0.53941000      -0.08452000       1.81094000      -1.40013000
C        1.06202000      -0.84755000      -1.59293000      -0.06644000       0.02776000       0.56180000
H        0.90740000       0.20441000      -1.42161000       0.02703000       0.51598000       0.24287000
H        1.34412000      -0.94360000      -2.61692000      -0.03009000      -0.27022000      -0.97964000
H        1.90340000      -1.20398000      -1.01113000      -0.19306000      -0.07386000       0.31047000
22
Lattice="100.0 0.0 0.0 0.0 100.0 0.0 0.0 0.0 100.0" Properties=species:S:1:pos:R:3:forces:R:3 config_type=vacuum energy=-11581.62842744 pbc="T T T"
C       -0.04630000       1.82864000       0.88823000      -0.40108000       0.32644000      -0.30948000
C       -0.97076000       0.84366000       1.65934000      -0.38026000      -0.86260000      -3.00803000
C       -0.02043000      -0.18319000       2.11350000       1.24001000       0.38074000       0.88302000
H       -1.74420000       1.18100000       2.35029000       0.17581000       0.07722000      -0.39190000
C        1.04590000      -0.18553000       1.30420000       1.03366000      -0.36209000       1.26980000
H       -0.07581000      -0.75394000       3.02473000      -0.39152000      -0.27892000      -0.09736000
C        0.86771000       0.78867000       0.25271000      -2.49978000      -0.68116000      -1.11539000
H        1.95486000      -0.76246000       1.42503000      -0.34435000      -0.28661000      -0.04222000
H        1.67564000       1.08810000      -0.37082000       0.54730000       0.26619000      -0.30837000
H        0.51824000       2.50826000       1.52901000      -0.04017000      -0.08918000       0.12496000
H       -0.57528000       2.40104000       0.10225000       0.14002000      -0.08712000       0.61620000
C       -0.43504000      -0.02554000      -0.73537000       2.44727000       1.88663000       1.09431000
C       -1.54808000       0.04672000       0.23008000      -1.59873000       2.30752000       0.22273000
H       -2.39218000       0.60254000      -0.27395000       0.82429000      -0.14315000       0.86684000
H       -1.96292000      -0.88397000       0.46980000      -0.24323000      -1.42579000       0.54464000
C        0.14167000      -1.29351000      -1.15977000      -1.85143000      -2.56871000       1.52421000
H       -0.46828000       0.60971000      -1.60558000      -0.39099000       0.45955000      -0.09232000
O       -0.17314000      -2.35145000      -0.59579000       0.98822000       1.34375000      -0.85894000
C        0.93947000      -1.25179000      -2.38730000       2.23923000      -0.12218000      -0.98592000
H        1.61637000      -0.38622000      -2.45097000      -0.62379000       0.17223000       0.06215000
H        0.27378000      -1.23988000      -3.24278000      -0.17690000       0.05737000      -0.15874000
H        1.65383000      -2.07798000      -2.50867000      -0.66467000      -0.18389000       0.23349000
22
Lattice="100.0 0.0 0.0 0.0 100.0 0.0 0.0 0.0 100.0" Properties=species:S:1:pos:R:3:forces:R:3 config_type=vacuum energy=-11580.99355954 pbc="T T T"
C       -0.25972000       2.15339000       1.55698000      -0.29930000       2.15236000       0.02224000
C       -0.40635000       0.99435000       2.43360000       0.26555000      -2.26277000       0.49804000
C        0.76529000       0.31400000       2.41313000      -1.12639000      -1.13884000       2.23478000
H       -1.29429000       0.61922000       2.98969000       0.69930000       0.71869000      -0.70278000
C        1.75502000       1.00799000       1.65563000      -0.14951000       0.35999000      -0.14396000
H        0.94188000      -0.57551000       3.05250000       0.00599000       0.63607000      -0.75049000
C        1.18784000       2.07443000       1.07725000       0.71884000       1.00160000      -0.84147000
H        2.78558000       0.74192000       1.68498000       0.55436000      -0.17853000      -0.35305000
H        1.81132000       2.79717000       0.46175000      -1.44904000      -0.76662000       0.83509000
H       -0.35366000       3.06370000       2.23394000       0.06508000      -0.68144000      -0.86530000
H       -1.07772000       2.24011000       0.81485000       0.63841000       0.06272000       0.13405000
C       -1.48008000      -1.14890000      -2.00943000       1.40252000       0.87291000       0.31758000
C       -2.37849000      -2.08098000      -2.22108000       0.48227000       0.82752000      -0.22986000
H       -3.25221000      -2.09346000      -2.77565000      -1.60808000       1.04357000      -1.08292000
H       -2.19334000      -3.02664000      -1.86811000       0.77745000      -2.06756000       1.19347000
C       -0.20800000      -1.58456000      -1.29198000      -0.25232000      -1.97480000       1.19080000
H       -1.47015000      -0.10462000      -2.37147000      -0.40595000      -0.76302000       0.07424000
O       -0.20694000      -2.56902000      -0.53941000      -0.08452000       1.81094000      -1.40013000
C        1.06202000      -0.84755000      -1.59293000      -0.06644000       0.02776000       0.56180000
H        0.90740000       0.20441000      -1.42161000       0.02703000       0.51598000       0.24287000
H        1.34412000      -0.94360000      -2.61692000      -0.03009000      -0.27022000      -0.97964000
H        1.90340000      -1.20398000      -1.01113000      -0.19306000      -0.07386000       0.31047000
