22
Lattice="100.0 0.0 0.0 0.0 100.0 0.0 0.0 0.0 100.0" Properties=species:S:1:pos:R:3:forces:R:3 config_type=vacuum energy=-11581.17237259 pbc="T T T"
C        0.12977000       1.99169000       1.84767000      -0.49662000       1.64920000       1.23649000
C       -0.18636000       0.72480000       2.60027000       1.49678000      -0.44773000      -0.87987000
C        0.92734000      -0.04526000       2.47321000      -0.56838000      -0.97938000       1.26100000
H       -1.13225000       0.46945000       3.05633000       0.15494000       0.03542000      -0.04125000
C        1.97595000       0.66222000       1.77395000       1.05348000      -0.50149000       0.42768000
H        1.15177000      -1.02984000       2.93331000      -0.60060000       0.69974000      -0.43282000
C        1.57071000       1.87400000       1.45137000      -0.79559000       0.92085000      -1.16401000
H        2.98498000       0.29059000       1.67208000      -0.01371000      -0.15250000      -0.11386000
H        2.14273000       2.67147000       0.96986000      -0.31308000      -0.39693000       0.19430000
H        0.07150000       2.91620000       2.50012000      -0.31392000      -0.93274000      -0.40280000
H       -0.60186000       2.16600000       1.05348000       0.27752000       0.05084000      -0.18627000
C       -1.49598000      -0.68416000      -2.27551000       1.69705000       0.50562000       0.63608000
C       -2.64965000      -1.25127000      -2.49713000       1.10965000      -1.77452000       0.56549000
H       -3.46986000      -0.85408000      -2.94860000      -1.96012000       1.33932000      -1.32287000
H       -2.70085000      -2.29415000      -2.20588000      -0.32000000       0.05762000       0.21429000
C       -0.48100000      -1.46020000      -1.49457000       0.20359000      -0.73170000       0.06823000
H       -1.14532000       0.30030000      -2.53510000      -0.48545000       0.35963000      -0.33376000
O       -0.83241000      -2.38923000      -0.80594000      -0.09957000      -0.26856000       0.15322000
C        1.00059000      -1.13400000      -1.56787000      -1.08280000      -0.73380000      -0.59771000
H        1.11978000      -0.21792000      -2.11468000       0.60867000       0.38904000      -0.10233000
H        1.48233000      -1.99014000      -2.08185000      -0.17405000       0.63793000       0.25181000
H        1.33779000      -1.10145000      -0.55000000       0.43756000       0.28695000       0.32896000
22
Lattice="100.0 0.0 0.0 0.0 100.0 0.0 0.0 0.0 100.0" Properties=species:S:1:pos:R:3:forces:R:3 config_type=vacuum energy=-11581.08430568 pbc="T T T"
C        1.09293000       2.17091000       1.89554000      -0.15394000       1.48747000       2.15851000
C       -0.02887000       1.43729000       2.58328000      -0.08482000       0.38687000       0.26678000
C        0.11129000       0.13225000       2.37161000      -0.39941000      -1.54997000      -0.99723000
H       -0.77670000       1.91854000       3.19302000      -0.15652000       0.06937000      -0.21779000
C        1.34634000      -0.06607000       1.57583000      -0.25838000      -0.15864000       0.49114000
H       -0.60967000      -0.71429000       2.52157000       0.88277000       1.13853000       0.34937000
C        1.94668000       1.10691000       1.37030000       0.67120000      -0.03827000      -1.44938000
H        1.68950000      -1.01759000       1.23098000       0.13357000      -0.34152000      -0.05345000
H        2.82962000       1.29752000       0.74228000      -0.46182000      -0.17635000       0.51649000
H        1.60111000       2.86971000       2.61280000      -0.13329000      -0.65838000      -0.40377000
H        0.68633000       2.87284000       1.17612000      -0.11416000      -0.06139000      -0.57588000
C       -1.59404000      -0.67628000      -2.20841000       1.86500000       1.18239000       0.86774000
C       -2.65190000      -1.39628000      -2.39807000       0.31342000      -2.01381000       0.86235000
H       -3.54897000      -1.18958000      -2.83826000      -1.97265000       1.17600000      -1.34465000
H       -2.59431000      -2.39735000      -1.98364000      -0.09676000      -0.03720000      -0.01264000
C       -0.50065000      -1.36836000      -1.41832000       0.36214000      -1.26128000       1.62366000
H       -1.43769000       0.38128000      -2.48403000      -0.14649000      -0.76465000      -0.09722000
O       -0.76922000      -2.28737000      -0.61255000       0.93143000       2.39678000      -2.11088000
C        0.94728000      -0.83162000      -1.62228000      -0.82350000      -2.18652000       0.63701000
H        0.94411000       0.17133000      -1.24209000       0.37539000       0.51712000       0.10779000
H        1.21488000      -0.87433000      -2.67207000      -0.07618000       0.12040000      -0.21962000
H        1.64840000      -1.50099000      -1.06967000      -0.59459000       0.78526000      -0.29767000
22
Lattice="100.0 0.0 0.0 0.0 100.0 0.0 0.0 0.0 100.0" Properties=species:S:1:pos:R:3:forces:R:3 config_type=vacuum energy=-11580.93984791 pbc="T T T"
C        0.74328000       1.89110000       1.36103000       0.83114000      -0.06996000       0.27756000
C       -0.51616000       1.92788000       2.13917000      -0.14819000      -2.45441000       0.58943000
C       -0.91242000       0.67396000       2.53421000       2.00630000       0.60548000      -1.76542000
H       -0.92536000       2.85193000       2.35136000      -1.20221000       1.50768000       0.59173000
C        0.13215000      -0.27099000       1.94986000      -0.71759000       0.43047000       1.17357000
H       -1.79984000       0.33760000       3.04183000       0.01286000       0.23055000       0.21821000
C        1.02525000       0.43396000       1.26375000       1.34201000      -0.57361000      -0.99780000
H        0.23532000      -1.32261000       2.18450000      -0.33420000       0.00334000      -0.24923000
H        1.89039000       0.01167000       0.69621000      -0.83930000       0.43667000       0.73228000
H        1.58917000       2.36282000       1.93945000      -0.77648000      -0.23631000      -0.52827000
H        0.65492000       2.41909000       0.40740000       0.09403000      -0.07620000       0.03496000
C       -0.25342000      -0.21995000      -1.62697000      -0.93702000       0.19332000       0.60836000
C       -1.42197000       0.17668000      -1.08955000       0.27067000      -0.38651000       0.03998000
H       -1.86048000       1.18336000      -1.24368000       0.59823000      -0.73349000       0.52238000
H       -1.93739000      -0.57700000      -0.44391000       0.02978000       0.76843000      -1.07306000
C        0.09066000      -1.65937000      -1.63717000      -1.32694000      -3.22458000       1.11684000
H        0.52061000       0.45572000      -1.96850000      -0.38077000       0.13268000      -0.57813000
O       -0.65730000      -2.57394000      -1.22713000       1.04006000       2.37052000      -0.74781000
C        1.47962000      -2.03102000      -2.07576000      -0.42450000       1.34196000      -0.15049000
H        1.98035000      -1.63293000      -1.18036000       0.84575000      -0.36175000      -0.50331000
H        1.71977000      -1.42174000      -2.95280000       0.42369000      -0.05063000       0.25754000
H        1.65473000      -3.08094000      -2.29308000      -0.15737000       0.08914000       0.34350000
22
Lattice="100.0 0.0 0.0 0.0 100.0 0.0 0.0 0.0 100.0" Properties=species:S:1:pos:R:3:forces:R:3 config_type=vacuum energy=-11580.85868406 pbc="T T T"
C       -0.28561000       1.81686000       0.83904000       0.39202000       1.18833000       0.58773000
C       -1.09393000       0.61855000       1.38751000      -0.35843000      -0.81534000       2.13602000
C        0.05274000      -0.31730000       1.95426000      -0.43559000       0.96503000      -1.15445000
H       -1.92565000       0.78223000       2.09007000       0.63301000       0.26564000       0.05199000
C        1.16325000      -0.04822000       1.25435000      -2.78149000       1.10088000      -1.54450000
H       -0.09923000      -1.19708000       2.57262000      -0.02780000       0.49046000       0.25002000
C        0.67585000       0.90373000       0.09315000      -0.22231000       0.37890000      -1.10016000
H        2.06857000      -0.56928000       1.24922000       1.16811000      -0.67056000       0.05455000
H        1.42479000       1.39429000      -0.55419000      -0.25954000      -0.33041000       0.51802000
H        0.31437000       2.44051000       1.59370000      -1.19478000      -0.96933000      -0.77926000
H       -0.88916000       2.51189000       0.17310000       0.67390000      -0.96823000       0.74210000
C       -0.53105000       0.13693000      -0.86004000       1.68081000      -0.94216000       0.85803000
C       -1.67107000       0.00262000       0.12959000      -0.17123000      -0.57797000      -1.19247000
H       -2.64563000       0.41233000      -0.17956000       0.65585000       0.45366000       0.02783000
H       -1.81319000      -1.06417000       0.07275000      -0.43221000      -0.48034000       1.19575000
C        0.15578000      -1.21486000      -1.07836000      -1.26426000      -0.41114000      -0.15102000
H       -0.89818000       0.58655000      -1.77494000       0.93482000       0.55416000      -0.23889000
O       -0.10629000      -2.21184000      -0.43609000      -1.39186000       0.08532000       0.36654000
C        1.39858000      -1.36586000      -1.85117000       0.45776000      -1.89237000      -0.19341000
H        1.80786000      -1.95944000      -0.97276000       1.50406000       1.27472000      -1.48718000
H        1.77573000      -0.42457000      -2.22120000       0.80079000      -0.12589000       0.10220000
H        1.36131000      -2.18458000      -2.64485000      -0.30639000       1.38762000       0.81493000
22
Lattice="100.0 0.0 0.0 0.0 100.0 0.0 0.0 0.0 100.0" Properties=species:S:1:pos:R:3:forces:R:3 config_type=vacuum energy=-11580.65292032 pbc="T T T"
C       -0.12122000       1.80949000       0.92667000      -0.77842000      -0.05935000       0.20285000
C       -0.90615000       0.73556000       1.72702000       1.16711000       0.43448000       0.29947000
C        0.02709000      -0.25343000       2.06569000       0.41484000       0.66362000      -0.38462000
H       -1.72308000       0.99826000       2.38981000      -0.10405000      -0.03756000      -0.30956000
C        1.15098000      -0.08146000       1.23455000       0.34591000      -0.08460000       0.41085000
H       -0.07981000      -1.05681000       2.78651000      -0.16898000       0.18595000      -0.21472000
C        0.97886000       0.98390000       0.37161000       0.03378000      -1.12604000       0.49751000
H        2.03038000      -0.70490000       1.22403000      -0.16394000      -0.31117000      -0.07892000
H        1.69857000       1.15966000      -0.40486000       0.04196000       0.75828000      -0.02716000
H        0.27467000       2.54692000       1.64171000       0.00265000      -0.19828000      -0.12303000
H       -0.72601000       2.32082000       0.18231000       0.09101000       0.17170000       0.13051000
C       -0.65436000      -0.05227000      -0.90724000      -0.47800000       0.24352000      -1.18267000
C       -1.73692000      -0.02608000      -0.06845000      -0.29087000       0.07156000       1.43423000
H       -2.36913000       0.86120000      -0.02624000      -0.19289000      -0.63797000      -0.48710000
H       -2.06668000      -0.92489000       0.46425000       0.00555000       0.39638000      -0.62079000
C        0.06286000      -1.27032000      -1.15483000       0.37072000      -3.07543000       0.34759000
H       -0.61539000       0.63774000      -1.72737000       0.25646000       0.68741000       0.00517000
O       -0.07769000      -2.25378000      -0.41567000       0.09020000       1.07645000      -0.56317000
C        1.05821000      -1.38682000      -2.32747000       0.01604000       1.50931000       1.26547000
H        1.65845000      -0.46976000      -2.20968000       0.20625000      -0.29954000      -0.27390000
H        0.58620000      -1.28051000      -3.30014000      -0.18200000      -0.37040000      -0.03537000
H        1.71521000      -2.25052000      -2.18811000      -0.47512000       0.12571000      -0.26815000
121
Lattice="100.0 0.0 0.0 0.0 100.0 0.0 0.0 0.0 100.0" Properties=species:S:1:pos:R:3:forces:R:3 config_type=reactants_in_water energy=-80256.8767558 pbc="T T T"
C        7.46842000       6.99143000       7.77866000       1.34532000       0.06469000       1.05306000
C        6.19851000       6.51702000       8.35616000      -1.06789000      -0.62994000       0.91540000
C        5.99508000       5.19868000       8.08178000       1.71746000       1.82604000      -1.07873000
H        5.56222000       7.15880000       8.97157000       0.15477000      -0.40982000      -0.24574000
C        7.11564000       4.79369000       7.18471000       0.06852000      -0.56816000       0.20272000
H        5.17124000       4.60183000       8.34314000      -0.79195000      -0.51418000       0.37298000
C        7.96205000       5.81395000       7.01834000      -0.32458000       0.58854000      -0.50877000
H        7.29167000       3.82050000       6.72156000      -0.26688000       0.22198000       0.34266000
H        8.82531000       5.88646000       6.38948000       0.31618000      -0.28802000      -0.14459000
H        8.24111000       7.20122000       8.57497000      -0.69521000      -0.32727000      -0.26761000
H        7.45586000       7.96408000       7.30849000      -0.21962000       0.09295000      -0.74472000
C        4.24041000       4.32874000       4.74949000      -1.40563000       0.20083000      -0.24641000
C        2.97097000       4.39761000       4.31807000      -0.55631000      -0.74120000       0.16539000
H        2.16096000       4.62840000       5.03004000       0.73042000       0.69268000      -0.58873000
H        2.60998000       4.10381000       3.31493000       0.53649000      -0.21428000       0.66526000
C        5.30583000       3.62629000       4.01131000       2.02553000       3.00659000       1.26670000
H        4.43910000       4.92156000       5.64846000       0.39561000      -0.68772000      -0.05775000
O        5.22740000       2.56251000       3.47906000      -1.30640000      -2.24788000      -1.23514000
C        6.66020000       4.32009000       3.89110000      -0.76472000       1.04532000       1.02728000
H        6.76080000       5.25502000       4.45408000      -0.45805000      -0.07933000      -0.38288000
H        6.75069000       4.52825000       2.83932000       0.39295000       0.14360000       0.02668000
H        7.46760000       3.74559000       4.29285000       0.16910000      -0.82120000      -0.10751000
O        2.61725000       1.45201000       2.69642000       0.28923000      -0.05101000      -1.18169000
H        2.79135000       1.23645000       1.75331000      -0.59070000       0.16880000       0.39077000
H        3.44102000       1.86319000       2.95598000       0.46548000       0.25061000       0.72997000
O        2.08907000       8.34183000      10.64923000      -0.97436000       0.04780000      -0.34688000
H        2.25865000       8.25945000       9.68636000      -0.66351000      -0.04777000       0.72348000
H        1.10886000       8.25857000      10.78503000       1.55435000       0.08742000      -0.56382000
O        2.31449000       0.59461000       6.93956000       1.51995000      -0.32815000      -0.92747000
H        3.12436000       0.81929000       6.39461000      -1.66906000      -0.21172000       0.97394000
H        1.85497000       1.41011000       7.11165000      -0.16279000       0.60141000      -0.26846000
O        0.60089000      -0.05546000       2.22300000      -1.37977000      -2.23216000       1.45225000
H        0.33538000      -0.79334000       2.86088000       0.36397000       1.55647000      -1.47320000
H        1.24370000       0.43635000       2.73654000       0.74257000       0.40006000       0.27293000
O        9.29838000       2.40651000       3.93572000       0.07035000      -0.96153000      -0.08640000
H        8.98630000       1.49842000       3.76868000       0.39203000       0.20681000       0.40656000
H        8.83026000       2.95054000       3.32106000      -0.44119000       0.43935000      -0.74147000
O        1.96723000       0.71617000      -0.08432000      -0.84857000      -0.04696000      -0.15710000
H        1.65915000      -0.10958000       0.34173000       0.12381000       0.59870000      -0.15728000
H        1.11730000       1.14839000      -0.32861000       1.00519000      -0.29373000       0.30009000
O        2.47137000       8.65800000       4.64215000       0.37347000       1.14416000      -0.45790000
H        3.31944000       9.24510000       4.61601000      -2.32779000      -1.28402000      -0.38844000
H        1.73026000       9.09580000       4.16570000       1.16957000      -0.18142000       0.46990000
O       11.55297000       7.09225000       7.31590000       0.35254000      -0.59397000       0.22255000
H       11.56130000       6.21680000       7.75477000      -0.20821000       0.63319000       0.02157000
H       11.25591000       6.88320000       6.43115000      -0.18195000       0.00973000      -0.50567000
O        5.34405000      12.25049000      11.82238000      -0.98979000       1.60387000       0.74517000
H        4.89397000      12.00293000      12.64643000       0.35535000      -0.14109000      -0.59407000
H        5.75714000      11.49854000      11.45793000       0.58312000      -1.42722000      -0.35562000
O       11.66945000       7.52284000      13.01333000      -0.24836000       0.61774000      -0.83468000
H       11.63398000       7.52434000      12.03387000       0.07161000      -0.09393000       0.79195000
H       11.37955000       8.42316000      13.23222000       0.15104000      -0.43275000       0.00241000
O        0.26628000       3.72131000       5.57643000      -0.29905000       0.32434000       1.63950000
H       -0.66148000       3.71050000       5.87061000       0.63394000      -0.03795000      -0.49316000
H        0.28647000       3.53688000       4.64765000      -0.50016000      -0.36910000      -1.03667000
O        1.89476000       7.86431000       7.24331000       1.10910000       0.21523000       0.71934000
H        2.86239000       7.97937000       7.40916000      -1.20084000      -0.36636000      -0.19510000
H        1.79685000       8.46117000       6.49068000      -0.01258000      -0.10196000      -0.27125000
O       10.82938000       3.73703000       5.62973000       1.34186000       1.87127000       1.28850000
H       10.16444000       3.26804000       5.18882000      -1.81667000      -1.60614000      -1.06745000
H       11.63708000       3.32970000       5.34446000       0.58105000      -0.43591000      -0.04124000
O       10.26327000       6.02161000       4.29792000      -0.02178000      -0.68790000      -0.00654000
H       10.56913000       6.41405000       3.48959000       0.30661000       0.40224000      -0.41669000
H       10.61703000       5.09983000       4.29505000      -0.26628000       0.79981000       0.56950000
O        9.17257000      12.81410000       5.83483000      -1.10381000       0.17507000       0.80278000
H        9.35681000      13.65452000       5.41078000       0.10535000       0.08538000      -0.11720000
H        8.43933000      13.02751000       6.46114000       0.97859000      -0.28694000      -0.71950000
O       -0.70647000       2.67029000       2.81489000      -0.40874000       0.61145000       0.29238000
H       -1.59907000       2.36234000       3.07301000       1.13552000      -0.25083000      -0.48356000
H       -0.14067000       1.95130000       2.50778000      -0.62323000      -0.35552000       0.11174000
O        6.23144000       6.23888000      -1.00656000      -0.81500000       0.11851000      -0.42524000
H        6.01134000       6.35427000      -0.09173000      -0.51389000       0.23931000       0.73204000
H        7.13154000       5.98692000      -0.91518000       1.27620000      -0.33682000      -0.26798000
O        9.55047000       9.67485000       1.40799000       0.42439000      -1.31019000      -0.12842000
H       10.00377000       8.80569000       1.30473000      -0.57971000       0.95992000       0.24211000
H        9.86833000      10.15461000       0.64817000       0.13034000       0.49065000      -0.32650000
O        2.52830000       5.15598000       7.84520000      -0.50139000      -0.70478000      -0.11440000
H        1.72105000       5.29523000       7.29488000       0.89463000      -0.27093000       0.71156000
H        2.52159000       4.24537000       8.21074000      -0.39802000       0.96337000      -0.55963000
O        9.56484000      -0.33355000       4.64646000      -0.39271000       1.64504000      -1.98325000
H       10.00009000      -0.98699000       4.12999000       0.48701000      -0.87030000      -0.21759000
H        9.48891000      -0.59086000       5.53093000      -0.14305000      -0.79650000       2.14405000
O        6.35350000      10.72220000       0.30811000       0.30810000      -0.39862000      -0.09096000
H        7.19173000      10.21378000       0.46018000      -1.43869000       0.80137000       0.57223000
H        5.86575000      10.96980000       1.11375000       0.96654000      -0.52751000      -0.34537000
O        8.14044000      -0.08927000       7.58054000       1.39884000      -0.32900000      -0.62187000
H        7.95736000      -0.30020000       8.48382000      -0.38101000      -0.03358000       0.82442000
H        7.38585000       0.35339000       7.23833000      -0.96211000       0.52102000      -0.24004000
O       10.57857000       9.08636000       9.06375000      -0.11999000      -0.38629000      -0.29328000
H       10.82155000       8.33732000       8.49321000       0.61907000      -0.32316000       0.26409000
H       10.00372000       9.51629000       8.43767000      -0.44504000       0.77338000      -0.03541000
O        7.13407000       2.79607000       1.17929000      -0.49310000       0.83360000       1.32963000
H        6.47905000       2.84965000       1.91682000       0.63764000      -0.23079000      -0.59553000
H        6.83121000       2.03903000       0.70322000      -0.15717000      -0.70007000      -0.73849000
O       -0.93956000       8.98787000       1.90414000       1.28777000       0.13781000      -0.04699000
H        0.04159000       9.09701000       1.91853000      -1.10414000      -0.15491000      -0.01458000
H       -1.03715000       8.24032000       1.31308000      -0.12886000      -0.20621000      -0.10577000
O        6.00949000       0.34533000      10.22587000      -1.38610000       0.57262000       0.47752000
H        5.25272000       0.97667000      10.30338000       1.04799000      -0.50963000      -0.47219000
H        5.80966000      -0.22007000      10.98231000       0.37860000      -0.23601000      -0.14988000
O        2.07166000       7.18825000       1.76977000       0.37339000      -0.16047000       1.10699000
H        2.06076000       6.84025000       2.70582000       0.30699000       0.89297000      -1.44783000
H        2.90745000       7.68302000       1.64987000      -0.74143000      -0.51370000       0.44257000
O        4.67051000       9.86866000       3.98548000       1.82536000       1.14976000       0.43428000
H        5.35815000       9.40793000       3.46769000      -0.51877000       0.18218000       0.41197000
H        5.16078000      10.51679000       4.55804000      -0.63677000      -0.95865000      -0.94753000
O       10.33100000       5.02991000       8.73348000       1.09349000       0.44430000       1.04455000
H        9.87257000       4.93521000       9.56931000      -0.16183000      -0.05462000      -0.03627000
H        9.78516000       4.67137000       8.06213000      -0.92741000      -0.59324000      -0.91431000
O        7.63604000       6.01355000       1.62303000      -0.73710000       0.61526000      -0.44450000
H        8.47164000       6.29377000       1.95023000       0.90809000       0.58423000       0.65034000
H        7.80650000       5.13809000       1.31277000      -0.03545000      -1.19532000      -0.50348000
O        3.28623000      10.39664000       7.26525000       1.10862000       0.49548000      -0.04553000
H        4.21401000      10.73352000       7.20168000      -1.37790000      -0.27503000       0.41288000
H        2.87639000      10.81143000       8.04055000       0.34910000      -0.12522000      -0.33146000
O       -1.20047000      -0.51694000       7.17102000       1.36479000      -0.45853000       0.19790000
H       -0.46609000      -0.27759000       7.77117000      -0.68523000       0.16544000      -0.26984000
H       -0.75717000      -1.24094000       6.68871000      -0.55813000       0.41449000       0.03942000
O        2.92937000      16.51845000       9.28130000       0.19632000      -0.29142000       0.01371000
H        2.32810000      17.26525000       9.36865000       0.03252000      -0.33015000       0.35306000
H        2.89850000      15.96230000      10.07388000      -0.24758000       0.54972000      -0.28206000
22
Lattice="100.0 0.0 0.0 0.0 100.0 0.0 0.0 0.0 100.0" Properties=species:S:1:pos:R:3:forces:R:3 config_type=vacuum energy=-11581.09586806 pbc="T T T"
C        1.24772000       0.97823000       1.93518000       1.26645000       2.42235000       1.04644000
C        1.09178000      -0.39035000       2.37981000       0.56326000      -1.85555000      -0.16400000
C        1.38077000      -1.20211000       1.34916000      -0.22042000      -0.79916000      -0.53415000
H        0.89798000      -0.79711000       3.35293000      -0.25227000       0.36870000       0.37055000
C        1.69355000      -0.40355000       0.15593000       1.10175000      -0.28858000      -0.13526000
H        1.32778000      -2.29815000       1.34008000       0.11748000       0.58295000       0.11971000
C        1.67926000       0.88716000       0.52453000      -1.12463000       0.31842000      -0.73809000
H        2.06417000      -0.81112000      -0.79982000      -0.60763000       0.22338000       0.58498000
H        1.66631000       1.78428000      -0.08714000       0.58403000      -0.30838000      -0.06427000
H        2.03322000       1.60913000       2.48659000      -0.93000000      -1.07624000      -0.37142000
H        0.34948000       1.57312000       2.05922000      -0.36916000       0.11336000      -0.04734000
C       -1.63454000       0.19060000      -0.14956000       0.02009000      -1.03840000       0.08256000
C       -1.94595000      -0.54349000       0.92236000       0.04731000      -1.13445000      -1.86703000
H       -2.34481000      -0.08456000       1.79688000       0.09010000       0.09479000       0.63797000
H       -1.91055000      -1.65869000       0.78316000      -0.12175000       1.28856000       0.49487000
C       -1.25110000      -0.38402000      -1.48219000      -1.73924000      -3.98703000       2.80130000
H       -1.64481000       1.23589000      -0.12209000      -0.15265000       1.54261000       0.27448000
O       -1.51075000      -1.59964000      -1.65726000       0.93865000       2.83608000      -0.46674000
C       -0.57629000       0.46145000      -2.42482000       1.30123000       2.31206000      -0.95821000
H       -0.92610000       0.20041000      -3.41333000       0.16943000       0.14013000      -0.39081000
H        0.51134000       0.26937000      -2.32618000      -0.54581000      -0.19504000      -0.25385000
H       -0.65218000       1.58779000      -2.22345000      -0.37749000      -1.66883000      -0.24561000
124
Lattice="100.0 0.0 0.0 0.0 100.0 0.0 0.0 0.0 100.0" Properties=species:S:1:pos:R:3:forces:R:3 config_type=reactants_in_water energy=-82337.56072575 pbc="T T T"
C        5.74645000       7.12807000       6.73790000       0.68967000      -0.99153000       1.02895000
C        4.93793000       6.15383000       7.55662000       0.16202000      -0.19394000       0.51575000
C        5.79549000       5.10638000       7.86961000      -0.57875000       0.15136000      -0.13175000
H        4.00302000       6.41024000       8.06962000       0.70857000      -0.19457000      -0.14069000
C        6.94574000       5.17001000       7.04399000       0.44664000      -0.63212000       0.19964000
H        5.51745000       4.25500000       8.47255000       0.12219000       0.10452000       0.10004000
C        6.81418000       6.21632000       6.17444000      -0.64867000       0.83707000       0.70006000
H        7.71589000       4.38255000       7.03730000      -0.45748000       0.62498000      -0.11419000
H        7.41803000       6.55880000       5.36564000       0.39429000      -0.08806000       0.22798000
H        6.18822000       7.85669000       7.44608000       0.00196000      -0.26042000      -0.48079000
H        5.19209000       7.62725000       6.01091000      -0.69802000       1.01462000      -1.04595000
C        5.06665000       5.27548000       4.86028000      -0.33203000      -0.99659000       0.42873000
C        4.01444000       5.30101000       5.73187000      -0.14257000       1.23591000      -0.40260000
H        3.22266000       6.05440000       5.69427000       0.50191000      -0.04073000      -0.18487000
H        3.71604000       4.45351000       6.27173000      -0.14717000      -1.14409000       0.50809000
C        5.80501000       3.99578000       4.77534000       0.16964000      -0.00306000      -0.27292000
H        5.20933000       6.01037000       4.07471000      -0.05667000      -0.21988000       0.26873000
O        5.71730000       3.08074000       5.59463000       0.18015000       0.95115000      -0.55209000
C        6.65157000       3.89222000       3.51321000      -1.25952000       0.60441000       0.43805000
H        7.31694000       4.73453000       3.43477000       0.33425000       0.41982000       0.15614000