118
Lattice="100.0 0.0 0.0 0.0 100.0 0.0 0.0 0.0 100.0" Properties=species:S:1:pos:R:3:forces:R:3 config_type=reactants_in_water energy=-78168.48932348 pbc="T T T"
C        5.68346000       7.18986000       6.64891000      -0.11207000      -0.11101000      -0.12683000
C        4.87191000       6.17740000       7.41838000       0.04156000       0.21808000       0.04748000
C        5.76285000       5.17128000       7.80558000      -1.47630000      -0.36044000      -1.34382000
H        3.99704000       6.44672000       7.99201000       0.08916000      -0.09366000      -0.06907000
C        6.91477000       5.25013000       7.02144000       0.02572000       0.24358000      -0.93388000
H        5.53927000       4.37712000       8.50069000      -0.41158000      -0.01126000      -0.70590000
C        6.78320000       6.30828000       6.13985000       0.38028000      -0.16252000       0.24486000
H        7.70367000       4.51517000       7.00683000      -0.03325000       0.03786000       0.01475000
H        7.53838000       6.63622000       5.44209000      -0.02570000       0.09505000      -0.04401000
H        6.11653000       7.89680000       7.36627000      -0.08921000       0.07084000      -0.10194000
H        5.14232000       7.75235000       5.89481000       0.11557000      -0.14123000       0.11897000
C        5.10394000       5.32733000       4.80340000      -0.09315000      -0.29579000      -0.33958000
C        4.05770000       5.36098000       5.71525000       0.02828000       0.11592000      -0.17093000
H        3.29633000       6.12216000       5.61504000      -0.05441000      -0.05705000      -0.04407000
H        3.72848000       4.41837000       6.12557000       0.05975000       0.00786000      -0.02213000
C        5.82878000       4.07143000       4.59485000      -0.24015000       0.58904000       0.05295000
H        5.23046000       6.11091000       4.06977000       0.00083000       0.05640000       0.01339000
O        5.66512000       3.10913000       5.32338000       0.00950000      -0.34832000       0.13778000
C        6.80456000       4.02397000       3.44137000      -0.02757000       0.27270000      -0.08575000
H        7.47298000       4.88474000       3.46615000       0.03661000      -0.05854000       0.08052000
H        6.25537000       4.06411000       2.49931000       0.12062000       0.11950000       0.28307000
H        7.37889000       3.10320000       3.48301000      -0.01304000       0.10577000       0.00612000
O        9.77562000       7.93860000       2.34070000      -0.58766000      -2.43995000      -0.77511000
H        9.56692000       8.05554000       1.37978000       0.26924000      -0.19185000       1.62628000
H        9.18606000       7.19920000       2.63446000       0.91559000       0.96469000      -0.24698000
O        3.14409000       5.25854000       9.75050000      -0.90704000      -0.43798000      -0.09881000
H        3.41228000       4.39089000       9.35572000      -0.83130000       0.81820000       0.37194000
H        2.15416000       5.23368000       9.75500000       1.47841000      -0.26310000      -0.02883000
O        3.34314000       2.73173000       2.79149000       1.41875000       0.00275000      -0.72186000
H        3.50680000       1.84316000       2.38620000       0.15906000       1.37395000       0.36466000
H        4.14269000       3.26468000       2.55214000      -0.86041000      -1.03968000       0.61349000
O        8.13565000       8.76797000       9.02654000      -2.91626000      -1.14758000      -0.17258000
H        7.27531000       9.15498000       8.72548000       1.26051000      -0.46012000       0.20898000
H        8.28138000       7.99206000       8.42878000      -0.33236000       1.16249000       0.74651000
O        1.47134000       8.18615000       7.70633000       0.76536000      -1.54906000       0.74129000
H        1.30783000       7.46473000       8.36469000       0.27376000       1.09191000      -0.97043000
H        2.45767000       8.26119000       7.66032000      -1.20844000       0.13912000       0.34956000
O        1.43961000       5.38389000       3.21036000      -0.63083000      -0.06695000      -1.44448000
H        1.81822000       4.94819000       2.40573000      -0.58320000       0.58045000       1.33932000
H        0.53119000       5.66628000       2.93536000       1.25175000      -0.47183000       0.41095000
O        4.61933000       9.07440000       2.64247000       1.06807000       0.13455000      -2.77623000
H        4.22539000       9.90080000       2.26500000       0.53694000      -1.42860000       0.44809000
H        5.20097000       8.72493000       1.92126000      -1.04968000       0.40692000       0.84085000
O        9.59549000       1.81773000       3.32179000      -1.88627000      -0.98032000      -0.14801000
H        9.03775000       1.09131000       3.69842000       0.68140000       0.99530000      -0.33671000
H        9.05318000       2.18808000       2.58062000       0.97742000      -0.11002000       1.20322000
O        2.56656000       2.85861000       8.38744000      -0.68060000       0.62002000      -1.72277000
H        2.80400000       2.94868000       7.43030000      -0.12075000      -0.35815000       1.27627000
H        1.63203000       2.53117000       8.38150000       1.49815000       0.15880000       0.26443000
O        2.31429000       8.01558000       1.72729000      -2.01447000       1.06603000       0.51733000
H        1.52599000       8.42458000       1.28923000       0.98894000      -0.55035000       0.71136000
H        2.18405000       8.19708000       2.69201000       0.20211000      -0.04881000      -1.16944000
O        7.46171000       0.05433000       8.58636000      -1.70143000       0.46312000      -0.58874000
H        6.65527000       0.46733000       8.98596000       1.04118000      -0.48012000      -0.76223000
H        7.44553000       0.34394000       7.63954000       0.05521000      -0.28978000       1.32135000
O        1.63221000       0.59298000       9.00892000      -0.20381000      -2.32772000      -0.68335000
H        2.37773000       0.04347000       9.35942000      -1.04071000       1.08480000      -0.31591000
H        1.24352000       0.04753000       8.27953000       0.51353000       0.58192000       1.05208000
O        9.65703000       9.60250000       7.55333000       2.56230000      -0.16584000      -0.97795000
H       10.50273000       9.88432000       7.98458000      -1.08085000      -0.41930000      -0.66083000
H        9.81049000       8.65753000       7.30020000       0.06654000       1.43402000       0.16547000
O        0.95772000       2.24512000       2.10571000       0.61346000      -0.69180000      -1.12723000
H        1.40956000       1.36771000       2.18695000      -0.66976000       1.32576000      -0.08954000
H        1.62686000       2.82919000       1.66788000      -0.86582000      -1.04077000       1.00996000
O       10.75336000       3.58863000       1.88224000      -0.06410000       0.15060000      -1.83236000
H       10.77692000       2.74188000       1.36935000       0.04941000       0.90670000       0.64323000
H       10.73735000       4.29723000       1.19070000       0.11589000      -0.99309000       0.91588000
O        9.42349000       7.31664000      10.72414000      -0.61782000       0.42574000      -0.54897000
H        8.76670000       6.89827000      10.11242000       0.86128000       0.60943000       1.09368000
H        9.24969000       8.28852000      10.64770000       0.02974000      -1.69068000       0.09147000
O        9.34598000       1.76119000       9.02541000      -0.01303000       1.95380000      -0.45024000
H        9.95386000       2.45557000       8.66634000      -0.84626000      -0.79132000       0.58354000
H        8.47609000       2.22273000       9.12956000       1.27061000      -0.69955000      -0.26062000
O        3.48747000       0.54575000       4.69708000       0.75600000       0.26676000      -1.21572000
H        4.23990000       0.18489000       4.16393000      -0.98742000       0.66900000       0.88347000
H        3.40094000       1.48618000       4.39928000       0.23560000      -0.87006000       0.42392000
O        8.25740000       9.32414000       4.34689000      -0.01240000       1.39058000      -0.34307000
H        8.65190000      10.16520000       4.68979000      -0.54646000      -1.25794000      -0.42661000
H        7.95240000       9.54815000       3.43180000       0.58215000      -0.27022000       1.13661000
O        0.91530000       3.63358000       5.54554000       0.57460000      -0.85561000       1.51072000
H        0.68500000       2.73545000       5.89330000       0.34569000       1.18790000      -0.50236000
H        1.59659000       3.97690000       6.17686000      -1.05007000      -0.33790000      -0.94696000
O        7.11859000       5.18498000       9.46300000       0.82389000       0.44828000       3.73154000
H        6.51397000       5.94353000       9.66214000       0.75133000      -0.98523000      -0.04315000
H        6.97389000       4.54991000      10.20888000       0.25723000       0.93107000      -0.58972000
O        4.67041000       9.84700000       4.75658000      -0.12474000      -0.24188000       2.66099000
H        4.11518000       9.02729000       4.77677000       0.80128000       1.19181000      -0.20353000
H        5.09643000       9.88019000       5.64989000      -0.67507000      -0.11727000      -1.14837000
O        0.63239000      10.31295000       6.03172000       0.12415000       0.69106000       1.42726000
H        0.05603000      10.81108000       6.66440000       0.88869000      -0.82259000      -0.74697000
H        1.32322000       9.89286000       6.60345000      -1.24476000       0.31701000      -0.56161000
O        9.02112000       9.98756000       1.61986000       0.33328000       2.39395000      -1.95636000
H        8.86243000      10.09515000       0.64834000       0.09415000       0.23149000       1.25371000
H        9.80534000      10.56209000       1.80830000      -1.04305000      -0.85107000      -0.18606000
O        5.49181000       2.48836000       1.20458000       0.87704000       0.46732000      -1.61214000
H        5.20462000       3.19072000       0.56832000       0.43431000      -1.02034000       0.60982000
H        6.43374000       2.30338000       0.96139000      -1.24621000       0.32150000       0.27051000
O        2.10713000      10.09873000       3.45749000       0.35938000       1.54118000      -1.09679000
H        1.80120000      10.34586000       2.54867000       0.42829000      -0.27407000       1.31217000
H        2.84393000      10.73116000       3.65179000      -0.92543000      -0.92166000       0.06839000
O        3.13853000       9.30092000       9.64534000      -0.40358000      -0.52672000       3.05185000
H        2.59983000       9.96362000      10.14656000       0.60895000      -0.98573000      -0.67172000
H        3.28525000       8.56271000      10.28886000      -0.25459000       0.95034000      -0.64300000
O        9.75622000       0.86721000       0.75880000      -0.84571000      -1.61633000      -0.43689000
H        9.92625000       0.09889000       0.15764000      -0.20897000       1.07345000       0.77446000
H        9.04437000       0.55103000       1.37026000       1.27901000       0.27645000      -0.76212000
O        3.59012000       9.95907000       7.54390000       1.37952000       2.28155000      -1.43836000
H        4.23814000      10.34810000       8.18369000      -1.17386000      -0.67979000      -0.73518000
H        3.50252000      10.64273000       6.83289000       0.16231000      -0.91035000       0.60763000
O        4.33805000       0.90304000       9.81208000       1.23313000      -1.34116000       0.04835000
H        5.05290000       0.74684000      10.47932000      -1.02097000       0.03357000      -0.74806000
H        4.41289000       0.14023000       9.18510000       0.12779000       1.05521000       0.73308000
O        8.37400000      10.88620000      10.97364000      -0.71122000      -0.94348000      -0.78906000
H        7.39839000      10.74951000      10.87316000       1.43661000       0.07723000       0.12609000
H        8.78201000      10.21397000      10.37178000      -0.76959000       0.98401000       0.56503000
O        2.99878000       6.28877000       0.18209000      -0.35746000      -2.23094000      -0.22348000
H        2.02212000       6.23685000       0.33717000       1.52423000       0.20162000       0.04782000
H        3.36834000       5.50605000       0.66311000      -0.60758000       1.20560000      -0.55974000
22
Lattice="100.0 0.0 0.0 0.0 100.0 0.0 0.0 0.0 100.0" Properties=species:S:1:pos:R:3:forces:R:3 config_type=vacuum energy=-11580.31377307 pbc="T T T"
C       -0.12827000       1.81513000       0.90817000       1.48812000      -0.35879000       0.49729000
C       -0.89711000       0.75609000       1.70321000      -1.72494000       3.78954000      -2.11933000
C       -0.04458000      -0.17501000       2.04658000       3.85844000      -3.10015000       0.82176000
H       -1.76190000       1.05168000       2.22920000      -0.85108000      -0.02896000       0.58305000
C        1.17435000      -0.07452000       1.27315000      -0.64559000      -3.60458000       2.79204000
H       -0.23933000      -0.99026000       2.71237000      -0.10592000      -0.22175000       0.26188000
C        1.01727000       0.88517000       0.41771000      -0.51476000       5.03040000      -3.03770000
H        1.94964000      -0.83280000       1.20483000      -0.22901000       0.14596000       0.34269000
H        1.74611000       1.25822000      -0.31578000      -0.34081000      -0.33446000       0.41031000
H        0.34774000       2.52760000       1.62841000      -0.31372000      -0.43644000      -0.41229000
H       -0.65261000       2.40573000       0.15828000      -0.02961000      -0.30805000       0.06799000
C       -0.62292000      -0.07824000      -0.95407000      -2.43973000       2.30644000       1.18973000
C       -1.68092000       0.03165000      -0.00279000       0.80139000      -3.99614000      -0.33553000
H       -2.47655000       0.70790000      -0.12698000      -0.53105000       1.05576000      -0.14322000
H       -2.04115000      -0.98915000       0.40372000       0.63462000       1.83781000      -0.67118000
C        0.06058000      -1.29692000      -1.15859000       0.62626000      -0.79632000      -0.04372000
H       -0.52920000       0.74358000      -1.65193000       0.29319000      -0.18048000      -0.14942000
O       -0.08690000      -2.24701000      -0.41978000      -0.22229000      -0.74015000       0.65438000
C        1.02435000      -1.35921000      -2.28832000       0.97522000       0.27400000      -0.01466000
H        1.72899000      -0.52304000      -2.25427000      -0.20639000       0.03129000      -0.08236000
H        0.51220000      -1.35044000      -3.21884000      -0.65186000       0.37608000      -0.90244000
H        1.60020000      -2.26615000      -2.29429000       0.18915000      -0.45411000       0.38214000
112
Lattice="100.0 0.0 0.0 0.0 100.0 0.0 0.0 0.0 100.0" Properties=species:S:1:pos:R:3:forces:R:3 config_type=reactants_in_water energy=-74004.25689898 pbc="T T T"
C        5.68346000       7.18986000       6.64891000      -0.20101000      -0.26404000      -0.54298000
C        4.87191000       6.17740000       7.41838000      -0.91325000      -0.89260000      -1.67994000
C        5.76285000       5.17128000       7.80558000       0.08273000      -0.59722000      -0.21496000
H        3.99704000       6.44672000       7.99201000      -0.27677000      -0.68963000      -1.16807000
C        6.91477000       5.25013000       7.02144000       0.13138000      -0.03871000       0.13619000
H        5.53927000       4.37712000       8.50069000      -0.13727000      -0.12114000      -0.02686000
C        6.78320000       6.30828000       6.13985000       0.24758000       0.04131000      -0.40901000
H        7.70367000       4.51517000       7.00683000       0.04389000       0.01106000      -0.05546000
H        7.53838000       6.63622000       5.44209000      -0.03864000       0.11992000       0.05211000
H        6.11653000       7.89680000       7.36627000      -0.28308000       0.12760000      -0.38664000
H        5.14232000       7.75235000       5.89481000       0.19999000      -0.11211000       0.26235000
C        5.10394000       5.32733000       4.80340000       0.49972000      -0.02995000       0.54345000
C        4.05770000       5.36098000       5.71525000       0.45774000       0.13736000       0.89077000
H        3.29633000       6.12216000       5.61504000       0.15207000      -0.04371000       0.17841000
H        3.72848000       4.41837000       6.12557000      -0.04242000      -0.00179000      -0.07480000
C        5.82878000       4.07143000       4.59485000       0.19073000       0.00330000      -0.36102000
H        5.23046000       6.11091000       4.06977000       0.34925000       0.07434000      -0.01285000
O        5.66512000       3.10913000       5.32338000      -0.21972000      -0.14881000       0.14183000
C        6.80456000       4.02397000       3.44137000      -0.02062000      -0.12092000       0.28863000
H        7.47298000       4.88474000       3.46615000      -0.23171000      -0.30362000      -0.09890000
H        6.25537000       4.06411000       2.49931000       0.02508000       0.07922000       0.04016000
H        7.37889000       3.10320000       3.48301000      -0.01610000      -0.06705000       0.05924000
O        5.12098000       7.15281000       9.21477000       1.63798000       3.25926000       4.14610000
H        4.85849000       8.07631000       9.45736000       0.20267000      -0.89082000       0.04698000
H        6.10693000       7.14291000       9.30646000      -1.35623000      -0.02246000       0.02252000
O       10.27525000       1.05190000       5.99253000      -1.51731000      -0.57956000       0.59841000
H        9.45609000       0.90331000       5.45634000       1.26229000       0.26413000       0.70603000
H       10.02365000       0.77936000       6.91068000       0.25721000       0.53662000      -0.91313000
O        2.61859000       5.58694000       3.61572000       5.60274000      -0.12672000      -2.91839000
H        3.55254000       5.88116000       3.76336000      -1.39424000      -0.46830000      -1.00245000
H        2.47941000       5.68326000       2.64005000       0.28984000      -0.17168000       1.36555000
O        6.78841000       1.22936000       7.75642000       1.02870000       0.21995000      -0.41806000
H        7.32565000       0.66010000       7.14985000      -0.62283000       0.99885000       0.96360000
H        7.38400000       1.98950000       7.97563000      -0.78364000      -1.19620000      -0.60468000
O        9.03238000       6.58813000       9.44888000      -1.23572000       0.29618000       1.14193000
H        8.06132000       6.57856000       9.25507000       1.37020000      -0.30461000       0.06650000
H        9.09435000       6.38534000      10.41615000      -0.03327000       0.30526000      -1.36250000
O        3.03056000       7.49773000       1.09624000      -0.74888000      -0.39583000       0.76519000
H        3.40763000       7.67121000       1.99531000      -0.53497000      -0.45590000      -1.02096000
H        2.13948000       7.10350000       1.27273000       1.42079000       0.52024000      -0.39764000
O        1.60466000       9.49703000       7.90873000       1.15542000      -1.86891000      -0.00850000
H        2.18129000       9.51014000       8.71368000      -1.05895000       0.24788000      -1.10190000
H        1.71316000       8.58417000       7.54064000      -0.17201000       1.21556000       0.32434000
O        7.53791000       6.47358000       1.99112000       1.21217000       0.23465000      -0.16862000
H        8.06918000       6.02061000       1.28886000      -0.58612000       0.34044000       1.03182000
H        8.21362000       6.84855000       2.61031000      -1.19545000      -0.53114000      -0.83472000
O        8.67496000       3.90024000       0.66880000       0.68185000      -1.68598000      -0.21467000
H        9.62630000       3.67445000       0.82562000      -1.42931000       0.31259000      -0.20737000
H        8.23748000       3.02801000       0.50021000       0.49457000       1.19168000       0.23445000
O        8.90713000       8.92321000       4.51453000       1.03520000       0.94972000      -1.07508000
H        9.45491000       9.67246000       4.85975000      -0.81914000      -1.13300000      -0.30308000
H        8.87109000       9.07238000       3.53624000      -0.13770000       0.08494000       1.20273000
O        8.56415000       3.72742000       9.65620000      -1.14264000       0.19218000       1.28372000
H        7.64685000       4.07968000       9.53332000       1.14597000      -0.38749000       0.11718000
H        8.74793000       3.84543000      10.62207000      -0.24243000      -0.19489000      -1.30948000
O        1.59912000       4.45891000       1.26189000      -0.26756000      -1.33904000      -1.46593000
H        2.07652000       3.59468000       1.33807000      -0.32131000       1.29275000      -0.11725000
H        1.18043000       4.43286000       0.36489000       0.55816000       0.07982000       1.17309000
O        2.50013000       1.92285000       9.89497000      -0.73778000      -0.03888000      -1.35671000
H        1.85337000       1.20503000       9.67809000       0.92195000       1.00027000       0.20997000
H        2.67656000       2.36804000       9.02821000      -0.22854000      -0.76722000       1.10038000
O        0.29279000       5.44480000       9.03864000       0.96548000      -0.50191000       1.19354000
H        1.12856000       4.91438000       9.01155000      -1.18400000       0.63597000       0.11178000
H        0.13030000       5.60276000      10.00261000       0.26303000      -0.29815000      -1.32004000
O        1.23393000      10.81285000       9.94793000      -1.16749000       0.13025000       1.84966000
H        0.26305000      10.81662000       9.75304000       1.39682000      -0.13551000       0.10848000
H        1.29196000      10.61115000      10.91568000      -0.15789000       0.43671000      -1.24061000
O        8.57884000       9.00424000       7.51569000      -0.27246000      -1.04739000       1.28368000
H        9.15293000       8.59660000       8.21201000      -0.75055000       0.28619000      -0.96427000
H        7.81181000       8.38356000       7.43186000       1.25493000       0.77269000      -0.18374000
O        2.31345000       8.29090000       3.56627000       2.34622000       4.29616000      -1.67501000
H        1.78730000       8.83083000       2.92421000       0.89489000      -0.33535000       0.90192000
H        3.03066000       8.90050000       3.87383000      -0.84393000      -0.41735000      -0.39228000
O        2.32853000       0.70854000       5.21075000       0.16185000       1.74083000      -0.06498000
H        1.68770000       1.36280000       4.83406000       0.91448000      -0.90280000       0.47841000
H        3.10363000       1.25559000       5.49455000      -0.96048000      -0.60043000      -0.37540000
O        0.75368000       4.83239000       4.00491000      -3.80014000      -4.23463000      -1.63592000
H        1.18209000       4.13275000       3.45032000      -0.85966000       0.98453000       0.81951000
H        0.19923000       5.34919000       3.36765000       0.91409000      -1.02399000       1.03930000
O        4.42949000       1.23644000       1.04762000      -0.39016000      -1.43859000      -0.18115000
H        4.59184000       0.42289000       1.58836000      -0.02835000       1.09548000      -0.80295000
H        3.95335000       0.90894000       0.24348000       0.65309000       0.30692000       1.07121000
O       10.66852000       1.26097000       3.13618000      -0.87815000       0.68308000      -1.38007000
H       10.90551000       2.11424000       2.69306000      -0.38269000      -1.16544000       0.71242000
H        9.76870000       1.04112000       2.78606000       1.22445000       0.35071000       0.41161000
O        8.52316000       8.97726000       1.18863000       1.23458000      -0.39165000      -0.87159000
H        9.16987000       8.25459000       1.38890000      -1.02788000       0.91601000      -0.77568000
H        8.58119000       9.09725000       0.20739000       0.00014000      -0.22848000       1.39408000
O        5.26313000       8.76112000       1.87253000      -0.68965000       0.64357000      -1.03918000
H        5.54455000       8.28836000       1.04918000      -0.27485000       0.47796000       1.26860000
H        4.52384000       9.35116000       1.57946000       1.02802000      -0.89289000       0.10005000
O       10.09817000       6.14038000       1.18179000       1.84651000       0.27523000       0.62745000
H       10.90972000       5.66519000       0.87164000      -1.02248000       0.81429000       0.35487000
H       10.38492000       6.60969000       2.00527000      -0.15415000      -0.84204000      -0.96398000
O        0.39280000       8.60907000       0.73614000       0.43319000       0.10603000       1.53536000
H        1.15425000       9.19204000       0.98301000      -0.91169000      -0.92960000      -0.54641000
H        0.22997000       8.05860000       1.54302000       0.12225000       0.73184000      -1.05749000
O        1.16658000       6.87248000       4.41401000      -4.69720000       1.86762000       3.86942000
H        1.12826000       6.51786000       5.33780000      -0.45158000       0.06345000      -1.37453000
H        0.37090000       7.45724000       4.33951000       0.84931000      -0.32714000       0.76701000
O        1.73783000       0.34992000       2.13786000       0.93432000       0.93608000      -0.51377000
H        1.64079000       1.27713000       1.80399000       0.29647000      -1.34694000       0.53074000
H        2.71245000       0.23434000       2.26954000      -1.53255000       0.40612000       0.02734000
O        6.20461000      10.37635000      10.08099000       1.05006000      -1.07145000       0.19641000
H        6.31890000       9.51956000       9.59781000       0.16187000       1.40934000       0.49428000
H        7.02384000      10.46249000      10.63055000      -1.08359000      -0.13356000      -0.81890000
O        9.36602000       1.06319000       8.88004000      -0.28999000      -0.53142000       1.62355000
H        8.85385000       1.77321000       9.34283000       0.75849000      -0.62179000      -0.54870000
H        9.40374000       0.31915000       9.53239000      -0.15431000       1.02816000      -0.94123000
O        5.81896000       9.63306000       5.20157000      -0.16796000       1.71382000      -0.90220000
H        5.44077000       9.75033000       4.29392000       0.76636000      -0.22674000       1.01024000
H        6.30916000      10.47543000       5.37684000      -0.57240000      -1.23033000      -0.25577000
124
Lattice="100.0 0.0 0.0 0.0 100.0 0.0 0.0 0.0 100.0" Properties=species:S:1:pos:R:3:forces:R:3 config_type=reactants_in_water energy=-82337.14349926 pbc="T T T"
C        5.72967000       7.08697000       6.63715000      -0.38342000       0.00504000      -0.92680000
C        4.88467000       6.12347000       7.40930000       0.45335000      -1.14483000       0.45314000
C        5.76960000       5.10560000       7.83158000      -0.40157000      -1.20850000      -0.20548000
H        4.02898000       6.32676000       8.01835000      -0.32895000       0.39703000      -0.05376000
C        6.90776000       5.12816000       7.04208000       0.37318000       0.80464000      -1.12175000
H        5.53576000       4.19342000       8.42474000      -0.04171000       1.33847000      -0.30001000
C        6.80896000       6.15487000       6.07875000      -1.57202000       0.58872000       1.29888000
H        7.61357000       4.32790000       6.99454000       0.36667000      -0.33808000       0.22129000
H        7.49225000       6.56307000       5.35450000       0.26228000      -0.38308000       0.11159000
H        6.18113000       7.77820000       7.34241000       0.12222000       0.27769000       0.00915000
H        5.12894000       7.63283000       5.89001000       0.67237000      -0.08020000       0.48181000
C        5.02059000       5.31847000       4.81708000       1.74536000      -0.68840000      -0.31174000
C        3.99438000       5.32498000       5.71204000      -0.94608000      -0.88613000       1.17255000
H        3.19630000       6.04888000       5.55627000       0.18785000      -0.14944000       0.26351000
H        3.69189000       4.33232000       6.11393000       0.14913000       1.05517000      -0.12124000
C        5.84280000       4.09398000       4.68661000      -0.29632000       1.05332000      -1.25673000
H        5.09181000       6.04625000       4.01425000       0.13899000      -0.18366000       0.44260000
O        5.80621000       3.14466000       5.43862000       0.00131000      -0.37771000       0.16712000
C        6.71220000       4.10414000       3.41144000      -2.58104000      -0.53480000       0.78482000
H        7.32370000       4.97427000       3.45107000       0.26702000       0.67174000      -0.44699000
H        5.88927000       4.15296000       2.60051000       1.61545000       0.02951000       0.97350000
H        7.34644000       3.22861000       3.39975000      -0.10613000      -0.13413000      -0.32282000
O        3.46779000       5.34403000       2.70043000       0.45517000       2.48090000       0.32966000
H        2.94015000       6.02424000       2.27483000       0.02232000       0.20646000       0.23273000
H        3.04374000       4.53498000       2.51762000      -0.76605000      -1.44849000      -0.25749000
O        1.30762000       8.19479000       7.22431000      -2.46624000      -1.44401000      -0.13215000
H        1.89812000       8.03998000       6.50153000       0.73909000      -0.01680000      -0.70561000