22
Lattice="100.0 0.0 0.0 0.0 100.0 0.0 0.0 0.0 100.0" Properties=species:S:1:pos:R:3:forces:R:3 config_type=vacuum energy=-11580.85744383 pbc="T T T"
C       -0.10834000       1.80154000       0.92629000       0.93653000       0.75409000      -0.79997000
C       -0.88372000       0.78252000       1.69538000      -1.04872000       1.51269000      -0.43078000
C       -0.00449000      -0.17968000       2.05093000       1.02756000      -1.83889000       1.01525000
H       -1.76564000       1.03888000       2.25507000      -0.14544000      -0.00906000       0.06830000
C        1.16197000      -0.08379000       1.28269000       0.51898000      -1.55005000       0.10685000
H       -0.22860000      -1.00085000       2.73046000       0.11159000       0.25866000      -0.18454000
C        1.02391000       0.92158000       0.37800000      -1.42286000       1.14330000       0.82050000
H        1.93042000      -0.86032000       1.23384000      -0.28131000       0.39415000       0.19639000
H        1.74896000       1.27006000      -0.29996000       0.69808000       0.30373000      -0.70901000
H        0.35407000       2.54162000       1.61087000      -0.15207000      -0.37134000      -0.13782000
H       -0.65053000       2.37031000       0.16309000       0.06069000      -0.20014000       0.26191000
C       -0.64584000      -0.06354000      -0.92589000      -0.46818000       1.68167000      -0.87863000
C       -1.69298000       0.01953000      -0.03701000      -0.55852000      -2.64616000       1.02253000
H       -2.48697000       0.71942000      -0.12872000      -0.21725000       0.72896000      -0.16101000
H       -2.04087000      -0.95997000       0.40712000       0.46120000       1.21902000      -0.58846000
C        0.04465000      -1.30606000      -1.15510000       1.13877000      -0.15232000      -0.51527000
H       -0.53858000       0.74519000      -1.66425000       0.16772000      -0.54487000       0.30320000
O       -0.08795000      -2.26740000      -0.44179000      -0.51110000      -0.90840000       0.90899000
C        1.03596000      -1.37937000      -2.29412000       0.03051000       1.87214000      -0.27846000
H        1.72809000      -0.49827000      -2.28633000      -0.62064000      -0.64221000       0.01210000
H        0.48953000      -1.34684000      -3.23248000      -0.11790000       0.09501000      -0.20313000
H        1.61696000      -2.26456000      -2.26808000       0.40947000      -0.87052000       0.23790000
22
Lattice="100.0 0.0 0.0 0.0 100.0 0.0 0.0 0.0 100.0" Properties=species:S:1:pos:R:3:forces:R:3 config_type=vacuum energy=-11580.34716789 pbc="T T T"
C       -0.12341000       1.82995000       0.93098000       1.27701000      -0.78930000      -0.81739000
C       -0.91894000       0.76501000       1.67736000      -0.74330000       2.64569000      -1.57735000
C       -0.02933000      -0.15182000       2.06433000       3.08030000      -3.11039000       0.68523000
H       -1.76181000       1.07202000       2.23606000      -0.84793000      -0.08236000       0.48841000
C        1.19716000      -0.07523000       1.30075000      -1.48333000      -2.43222000       2.20472000
H       -0.22582000      -1.01605000       2.69411000      -0.09468000       0.35278000       0.08199000
C        1.03091000       0.86918000       0.41130000      -1.37213000       4.78809000      -2.19623000
H        1.94563000      -0.83434000       1.21191000       0.20348000      -0.31584000       0.44944000
H        1.70592000       1.23962000      -0.35323000       0.10592000      -0.25064000       0.21272000
H        0.33686000       2.51598000       1.65933000      -0.10000000      -0.10919000      -0.20892000
H       -0.63598000       2.41285000       0.14278000       0.22737000      -0.44389000       0.54281000
C       -0.63044000      -0.08586000      -0.94848000      -1.43179000       2.20470000       0.51706000
C       -1.69175000       0.01832000      -0.00034000       0.69475000      -3.25609000      -0.11016000
H       -2.48338000       0.71503000      -0.12246000      -0.26593000       0.73325000      -0.17392000
H       -2.06402000      -0.99504000       0.38575000       0.60853000       1.64198000      -0.51089000
C        0.08666000      -1.32098000      -1.16073000      -0.40874000       0.43178000       0.11011000
H       -0.52035000       0.76515000      -1.64807000       0.15402000      -0.81407000       0.32002000
O       -0.09597000      -2.25921000      -0.42113000       0.08600000      -0.92615000       0.55137000
C        1.03502000      -1.35313000      -2.30636000       0.84235000      -0.09036000       1.46867000
H        1.72807000      -0.54008000      -2.24456000       0.29061000       0.68127000      -0.10173000
H        0.51431000      -1.32399000      -3.19354000      -1.30099000       0.43405000      -2.09100000
H        1.60066000      -2.24738000      -2.31578000       0.53527000      -1.00299000       0.23260000
22
Lattice="100.0 0.0 0.0 0.0 100.0 0.0 0.0 0.0 100.0" Properties=species:S:1:pos:R:3:forces:R:3 config_type=vacuum energy=-11581.02950949 pbc="T T T"
C       -0.09420000       1.79864000       0.91913000       0.23277000       0.66030000      -0.82343000
C       -0.88888000       0.77759000       1.68663000      -0.84745000       1.19055000      -0.05993000
C        0.00215000      -0.19060000       2.06899000       0.53783000      -0.99576000       0.22976000
H       -1.77463000       1.05393000       2.25964000       0.27289000      -0.13358000      -0.19645000
C        1.15569000      -0.10454000       1.27849000       0.39687000      -0.74312000       0.04266000
H       -0.23333000      -1.00220000       2.74454000       0.11430000       0.08316000      -0.02326000
C        1.02570000       0.93141000       0.38201000      -0.69376000       0.34310000       0.47961000
H        1.93696000      -0.86174000       1.24670000      -0.20855000       0.25229000       0.09849000
H        1.76751000       1.26634000      -0.31599000       0.15511000       0.09892000      -0.14726000
H        0.35433000       2.50962000       1.62739000      -0.04380000      -0.07768000      -0.02216000
H       -0.63340000       2.38137000       0.14716000       0.23669000      -0.36647000       0.56216000
C       -0.65917000      -0.04441000      -0.93673000      -0.24976000      -0.14415000       0.07614000
C       -1.71580000       0.00271000      -0.03621000       0.33728000      -1.30838000       0.15792000
H       -2.48027000       0.73889000      -0.13348000      -0.29433000       0.46629000      -0.04832000
H       -2.04106000      -0.96160000       0.38240000       0.13530000       0.58603000      -0.24198000
C        0.05670000      -1.32475000      -1.14005000       0.26396000       2.28935000      -1.42140000
H       -0.53277000       0.73537000      -1.67080000       0.11512000       0.02471000      -0.08361000
O       -0.10325000      -2.25642000      -0.42247000      -0.32609000      -1.88846000       1.40344000
C        1.02670000      -1.35130000      -2.30640000       0.65636000      -0.21630000       0.38774000
H        1.72523000      -0.50216000      -2.27453000      -0.34518000      -0.15281000       0.00668000
H        0.49019000      -1.32401000      -3.24305000      -0.27481000       0.13094000      -0.28055000
H        1.61562000      -2.27212000      -2.26339000      -0.13639000       0.14489000      -0.01441000
118
Lattice="100.0 0.0 0.0 0.0 100.0 0.0 0.0 0.0 100.0" Properties=species:S:1:pos:R:3:forces:R:3 config_type=reactants_in_water energy=-78174.85337858 pbc="T T T"
C        5.74654000       7.23332000       6.62122000      -2.30224000      -1.91381000      -0.76926000
C        4.89554000       6.13410000       7.31723000      -0.08688000       0.89935000      -0.19063000
C        5.73599000       5.11061000       7.69224000       1.65085000      -0.68951000      -0.19774000
H        4.04861000       6.39392000       7.90802000      -0.40693000       0.19165000       0.35766000
C        6.91213000       5.22191000       6.91814000      -0.01044000       0.89730000       0.80508000
H        5.49183000       4.24962000       8.29024000      -0.13858000       0.18113000       0.15251000
C        6.87358000       6.38774000       6.18090000      -0.40527000      -0.55156000      -0.54971000
H        7.73204000       4.54270000       6.86292000       0.18731000      -0.56896000      -0.04881000
H        7.60939000       6.70513000       5.47192000       0.34213000       0.07259000      -0.17634000
H        6.01934000       7.90427000       7.37467000       0.63045000       1.25128000       1.11758000
H        5.12068000       7.74560000       5.87025000       0.83921000      -0.05254000       0.18730000
C        5.10769000       5.30205000       4.81988000      -0.42783000       0.77590000      -0.63623000
C        4.07620000       5.33258000       5.76622000       0.79806000      -0.08659000      -0.38680000
H        3.29380000       6.07391000       5.73744000       0.34466000      -0.28808000      -0.30101000
H        3.83274000       4.34693000       6.13625000      -0.31752000       0.07488000       0.20663000
C        5.83176000       4.04647000       4.61279000       0.42757000       0.89917000      -1.44309000
H        5.27510000       6.14021000       4.11977000      -0.08859000      -0.69044000       0.42755000
O        5.58290000       3.03313000       5.22498000      -0.26703000      -0.81111000       1.07899000
C        6.87586000       4.05027000       3.51086000      -1.03412000       0.41933000      -0.46177000
H        7.68358000       4.73450000       3.79504000      -0.10689000      -0.26501000      -0.33258000
H        6.30545000       4.44947000       2.61915000       0.96210000      -0.40921000       0.76649000
H        7.21238000       3.02887000       3.29166000      -0.31738000       0.71968000       0.00152000
O        5.30965000       6.85839000      10.17542000      -0.53588000      -0.19032000       0.87109000
H        5.64200000       7.25138000      10.98642000       0.11409000       0.20001000      -0.19845000
H        5.94216000       7.01668000       9.48589000       0.48603000       0.23409000      -0.44584000
O        4.67472000       3.62249000       1.15416000       0.26251000       0.57043000      -1.20194000
H        4.54153000       4.16823000       0.34439000       0.25651000      -0.46861000       0.94371000
H        5.32025000       2.94355000       0.92982000       0.06714000      -0.14562000      -0.03583000
O        2.70040000       1.75252000       0.39444000       0.66885000       1.81301000      -1.01866000
H        2.11116000       1.55989000       1.09617000      -0.81115000      -0.34520000       1.10976000
H        2.84961000       2.73878000       0.50147000       0.09090000      -1.85440000       0.12098000
O        3.49252000       1.81440000       9.66394000       0.39762000      -0.31493000      -0.16878000
H        3.72651000       1.59976000       8.73526000      -0.70836000       0.21226000       0.60561000
H        2.79598000       1.25097000       9.99633000      -0.20986000      -0.24315000      -0.41941000
O        2.90624000       1.82672000       4.61859000      -0.46740000       1.23874000       0.29663000
H        3.50461000       2.53583000       4.26786000      -0.68079000      -0.87910000       0.81205000
H        2.36255000       2.23373000       5.34171000       1.10878000      -0.35437000      -1.07666000
O        4.08137000       6.32801000       0.55813000      -0.47938000       0.11425000       1.20825000
H        5.00234000       6.37130000       0.83838000       0.10202000       0.05491000      -0.16877000
H        3.64161000       6.17315000       1.42842000       0.20239000      -0.16412000      -0.90671000
O        1.71214000       9.10601000       2.93412000      -1.08669000      -0.62976000       0.92353000
H        1.18434000       8.40353000       3.42470000       1.42104000       1.08999000      -0.79539000
H        1.96292000       9.73800000       3.62147000      -0.02719000      -0.25378000      -0.15217000
O        9.04794000       1.87504000       9.08321000      -1.15013000      -1.07852000       0.76068000
H        9.22332000       2.81087000       9.03696000       0.03527000       0.50296000       0.30046000
H        8.30438000       1.70853000       9.72554000       1.06098000       0.51634000      -1.23714000
O        1.04582000       7.52606000       0.69875000      -0.32536000       0.15417000       0.28070000
H        0.37859000       7.93098000       1.28329000       0.75793000      -0.17337000      -0.36370000
H        1.90528000       7.90821000       0.94085000      -0.43313000      -0.12163000      -0.00015000
O        7.43457000       0.19627000       6.56350000       0.45228000      -2.12823000      -0.48738000
H        7.02460000       1.00695000       6.75816000      -0.92394000       1.73289000       0.30530000
H        8.16274000       0.11061000       7.17676000       0.14300000       0.13265000       0.26794000
O        9.72166000       5.42443000       2.36454000      -0.78441000       0.07249000      -0.59538000
H        9.39691000       4.90439000       1.61353000      -0.00053000       0.15055000       0.42264000
H       10.54400000       5.01329000       2.59427000       0.59729000      -0.39289000       0.27586000
O        3.76445000       9.90022000       9.57037000      -0.43526000      -0.22080000       0.86054000
H        3.38656000      10.75156000       9.77107000      -0.05801000       0.46845000       0.27989000
H        3.77988000       9.89862000       8.62643000       0.50955000      -0.15492000      -1.18329000
O        3.35930000       4.47765000       9.63851000      -0.10469000      -0.21078000       0.74688000
H        2.88956000       4.33505000       8.81645000      -0.21354000      -0.17060000      -0.22860000
H        3.31149000       3.61250000      10.09945000       0.09596000       0.80674000      -0.72005000
O        2.37796000       4.26246000       2.20282000      -1.98750000       1.15878000      -1.41448000
H        1.72667000       4.60939000       1.51549000       1.31711000      -0.49944000       1.14398000
H        1.78825000       4.12113000       2.94826000       0.10124000      -0.14544000       0.31467000
O        8.23887000       7.89687000       8.78996000      -0.11952000       0.81074000       0.84567000
H        8.32571000       8.76199000       9.23327000      -0.00565000      -0.06850000      -0.44771000
H        8.27619000       7.35139000       9.56966000      -0.01174000      -0.84425000       0.20665000
O        0.82168000       5.72226000       9.84968000      -0.11431000       0.97845000       0.51171000
H        1.70479000       6.06131000      10.12360000      -0.75060000      -0.56354000      -0.26279000
H        0.14343000       6.31022000      10.24654000       0.83807000      -0.44649000      -0.42458000
O        1.84359000      10.78595000       0.40649000      -0.62411000      -0.58027000      -0.73338000
H        2.04955000      10.68898000       1.32158000       0.44454000       0.21758000       1.09195000
H        1.26006000      10.01572000       0.31524000       0.14529000       0.27023000      -0.47202000
O        6.11825000       1.07872000       2.03693000       1.45612000       0.79500000      -0.58982000
H        6.46030000       0.19701000       1.95691000       0.14386000      -0.48622000      -0.09257000
H        5.21339000       1.00053000       2.23972000      -1.82470000      -0.22023000       0.42510000
O        9.20446000       9.65333000       7.05151000       1.29512000       0.60274000      -0.42864000
H        8.94732000       8.78970000       7.35122000      -0.36172000      -0.87037000       0.26471000
H       10.16951000       9.56201000       6.91807000      -0.83748000       0.27907000      -0.04530000
O       10.86488000       4.77582000       9.38317000      -0.21949000       0.08994000       0.63533000
H       11.12129000       4.77498000      10.32303000      -0.06744000      -0.06393000      -0.60132000
H       10.09935000       5.36083000       9.35109000       0.10599000       0.02214000      -0.14682000
O        0.67697000       4.04890000       7.48937000      -0.52464000      -1.28097000       0.96685000
H        0.55987000       4.46396000       8.37694000       0.18746000      -0.07369000      -0.72366000
H        0.45972000       3.08668000       7.64218000       0.63029000       1.56851000      -0.13830000
O        5.07683000      10.52672000       6.71737000      -0.46032000      -0.14392000       0.62433000
H        5.85679000      11.04857000       6.53827000       0.28420000       0.10562000      -0.26065000
H        4.43852000      10.75301000       6.04770000       0.00755000       0.11658000      -0.49443000
O        5.83684000       0.77495000       8.89985000      -0.62430000      -0.57198000       0.28471000
H        5.80787000      -0.11449000       8.50928000       0.25057000       0.48811000      -0.06275000
H        5.07599000       0.81147000       9.51470000       0.81667000       0.12552000      -0.18980000
O        9.22507000       2.17200000       5.56303000      -0.88700000       1.00473000       0.27415000
H       10.08958000       1.83180000       5.43908000       1.17547000      -0.52210000      -0.26686000
H        9.04827000       2.10263000       6.49914000      -0.09910000      -0.04950000       0.34027000
O        5.25458000       9.48697000       2.83100000      -1.00664000       0.11784000       1.30225000
H        5.85053000       9.48630000       2.11282000       1.26538000      -0.06756000      -1.02538000
H        4.39298000       9.39249000       2.43956000      -0.55426000      -0.17261000      -0.33457000
O        1.89337000       7.39790000       5.09865000      -0.15975000      -0.14486000      -0.44443000
H        1.43297000       8.07479000       5.57923000      -0.35681000       0.35605000       0.57364000
H        1.54008000       6.56508000       5.43568000      -0.07520000       0.05402000       0.04513000
O        8.92293000       1.56369000       3.00289000       0.64794000      -1.44790000      -1.24448000
H        8.57465000       2.09481000       3.68774000      -0.28299000       1.04291000       1.32222000
H        8.53905000       0.70832000       3.24068000       0.17279000       0.19673000      -0.20967000
O        7.89516000      10.00883000       4.21330000      -1.60976000       0.41771000       0.77429000
H        8.68719000      10.00883000       3.72012000       1.29920000      -0.37062000      -0.75551000
H        7.98838000       9.44845000       4.98223000       0.37674000      -0.00716000       0.13349000
O        0.10718000       9.38584000       9.03680000      -0.81975000      -0.03576000       0.04126000
H        0.61571000       9.87693000       9.66633000       0.32034000       0.45581000       0.71633000
H        0.77522000       9.06655000       8.45428000       0.68086000      -0.59649000      -0.70119000
O        1.08408000       1.12004000       7.60460000       0.41896000       1.03903000      -0.24965000
H        0.86534000       0.43661000       8.20663000      -0.30376000      -1.02830000       0.91385000
H        0.38086000       1.10018000       6.96604000      -0.36285000      -0.15937000      -0.66315000
O       10.07718000       9.19032000      10.70160000       0.44653000       0.20722000      -0.52719000
H       10.65740000       9.17932000       9.92319000      -0.31247000      -0.24580000       0.22813000
H       10.30985000      10.03181000      11.10624000      -0.17588000      -0.02018000       0.26061000
O        8.50524000       9.82746000       1.48852000       0.38751000      -2.22548000       1.96253000
H        8.08472000      10.61302000       1.29915000      -1.48179000       2.70790000      -0.53456000
H        9.00768000       9.61452000       0.73865000       1.07426000      -0.54878000      -1.52455000
22
Lattice="100.0 0.0 0.0 0.0 100.0 0.0 0.0 0.0 100.0" Properties=species:S:1:pos:R:3:forces:R:3 config_type=vacuum energy=-11580.32320787 pbc="T T T"
C       -0.03089000       1.78212000       0.94633000      -1.79905000       1.13545000       0.40239000
C       -0.88422000       0.79326000       1.70136000       0.64899000      -0.22628000       0.29246000
C        0.05517000      -0.16718000       2.13850000      -0.52296000      -0.27953000      -1.16995000
H       -1.79238000       1.14906000       2.16972000       0.19279000      -0.31095000       0.42283000
C        1.14249000      -0.10317000       1.24996000       1.41800000      -0.43270000       0.52119000
H       -0.11399000      -1.00184000       2.79588000      -0.07145000       0.07349000       0.22256000
C        0.99434000       0.94866000       0.37665000       0.41707000      -0.76707000      -0.34844000
H        2.00487000      -0.77171000       1.24176000      -0.57384000      -0.03583000      -0.02627000
H        1.58676000       1.26140000      -0.45484000       0.68032000       0.01067000       0.03142000
H        0.44763000       2.38877000       1.73566000      -0.20807000       0.18630000      -0.36104000
H       -0.63478000       2.38338000       0.28015000       0.25661000       0.38656000      -0.17886000
C       -0.71892000      -0.08272000      -0.96598000       0.69627000       0.56296000      -0.33669000
C       -1.71722000      -0.01029000      -0.01271000      -0.54539000      -0.07913000       0.04094000
H       -2.34628000       0.85949000       0.00280000      -0.40232000       0.07808000      -0.47209000
H       -2.23306000      -0.93434000       0.26773000       0.64685000       0.34576000       0.39638000
C        0.05423000      -1.27302000      -1.17057000      -1.12596000      -4.95332000       1.77950000
H       -0.53987000       0.64809000      -1.75269000      -0.26850000       0.35941000       0.52394000
O       -0.13085000      -2.31150000      -0.40576000       0.95941000       3.77968000      -2.71308000
C        1.03581000      -1.35001000      -2.34588000       0.11105000       0.15500000       0.89504000
H        1.58829000      -0.41631000      -2.35627000       0.47221000       0.06824000       0.09853000
H        0.62613000      -1.40658000      -3.34747000      -0.81427000      -0.19367000       0.05920000
H        1.69453000      -2.20845000      -2.21683000       0.00237000       0.21789000       0.13786000
124
Lattice="100.0 0.0 0.0 0.0 100.0 0.0 0.0 0.0 100.0" Properties=species:S:1:pos:R:3:forces:R:3 config_type=reactants_in_water energy=-82337.56072575 pbc="T T T"
C        5.74645000       7.12807000       6.73790000       0.68967000      -0.99153000       1.02895000
C        4.93793000       6.15383000       7.55662000       0.16202000      -0.19394000       0.51575000
C        5.79549000       5.10638000       7.86961000      -0.57875000       0.15136000      -0.13175000
H        4.00302000       6.41024000       8.06962000       0.70857000      -0.19457000      -0.14069000
C        6.94574000       5.17001000       7.04399000       0.44664000      -0.63212000       0.19964000
H        5.51745000       4.25500000       8.47255000       0.12219000       0.10452000       0.10004000
C        6.81418000       6.21632000       6.17444000      -0.64867000       0.83707000       0.70006000
H        7.71589000       4.38255000       7.03730000      -0.45748000       0.62498000      -0.11419000
H        7.41803000       6.55880000       5.36564000       0.39429000      -0.08806000       0.22798000
H        6.18822000       7.85669000       7.44608000       0.00196000      -0.26042000      -0.48079000
H        5.19209000       7.62725000       6.01091000      -0.69802000       1.01462000      -1.04595000
C        5.06665000       5.27548000       4.86028000      -0.33203000      -0.99659000       0.42873000
C        4.01444000       5.30101000       5.73187000      -0.14257000       1.23591000      -0.40260000
H        3.22266000       6.05440000       5.69427000       0.50191000      -0.04073000      -0.18487000
H        3.71604000       4.45351000       6.27173000      -0.14717000      -1.14409000       0.50809000
C        5.80501000       3.99578000       4.77534000       0.16964000      -0.00306000      -0.27292000
H        5.20933000       6.01037000       4.07471000      -0.05667000      -0.21988000       0.26873000
O        5.71730000       3.08074000       5.59463000       0.18015000       0.95115000      -0.55209000
C        6.65157000       3.89222000       3.51321000      -1.25952000       0.60441000       0.43805000
H        7.31694000       4.73453000       3.43477000       0.33425000       0.41982000       0.15614000
H        5.89674000       4.05006000       2.71372000       0.48242000      -0.54974000       0.14640000
H        7.24236000       3.00261000       3.47451000      -0.09397000      -0.52687000      -0.32971000
O        3.22369000       5.30976000       2.70203000       1.88010000       0.44215000      -0.93155000
H        2.86143000       6.03233000       2.21974000      -0.56055000       0.80812000      -0.06115000
H        2.62515000       4.98357000       3.32906000      -1.44898000      -0.63666000       1.09034000
O        1.40458000       7.93353000       7.04819000       0.19918000      -0.28008000       1.68433000
H        2.00528000       7.58650000       6.41889000       1.05609000      -0.55804000      -0.83671000
H        0.77331000       8.40192000       6.54844000      -1.22043000       0.87224000      -0.88420000
O        7.91310000       4.02748000       0.76037000       0.10240000      -0.45697000      -1.95598000
H        8.39712000       3.67504000       1.48391000       0.73630000      -0.65463000       1.28960000
H        7.29653000       4.62309000       1.12602000      -0.97823000       1.02627000       0.73113000
O        6.99867000       1.55395000       7.74988000      -0.55972000      -0.64371000       0.11824000
H        6.30854000       1.57069000       7.06810000       0.23003000       0.34526000       0.19412000
H        7.56139000       2.29751000       7.56429000       0.06995000       0.45077000      -0.04137000
O        2.63922000       8.36156000       2.38882000       0.04416000       0.54067000      -1.49223000
H        2.75009000       8.79629000       1.51032000       0.21627000      -0.23719000       1.08680000
H        1.74311000       8.02955000       2.30073000      -0.39077000      -0.19707000       0.44151000
O        6.35877000       5.79388000      11.18472000       0.14703000      -1.58279000       1.69625000
H        6.18699000       6.63809000      10.85419000      -0.36934000       2.01474000      -0.91475000
H        6.64056000       5.27317000      10.44995000       0.34287000      -0.55847000      -0.81023000
O        3.45524000       3.24590000       1.30089000       0.43260000      -0.66721000      -0.02539000
H        3.50436000       3.47786000       0.36962000      -0.19712000      -0.37278000       0.02277000
H        2.95910000       2.42068000       1.39244000      -0.18573000       0.39958000      -0.52638000
O        4.71313000       0.99741000       4.27713000      -1.60848000      -0.97082000       0.97098000
H        4.88742000       0.72737000       3.36573000       0.24350000      -0.33660000       0.56981000
H        4.00527000       0.41713000       4.69497000       1.59589000       0.75459000      -1.12377000
O        9.45833000       2.91146000       3.47559000       0.56547000       0.16088000      -0.25409000
H        9.39097000       3.26786000       4.36557000      -0.02124000       0.02567000       0.00465000
H       10.29586000       3.25442000       3.13428000      -0.24354000       0.00060000      -0.16450000
O        1.82841000       4.24634000       8.24515000      -0.48504000      -0.25152000      -0.14749000
H        0.94570000       4.44486000       7.90418000       0.25077000      -0.10687000      -0.05472000
H        1.69538000       3.47610000       8.82117000       0.08508000       0.53035000       0.14430000
O        2.21284000       1.54742000       5.03880000       0.08869000      -0.56300000      -0.91652000
H        2.24939000       1.84480000       5.92635000       0.02035000       0.55765000       1.38255000
H        3.01916000       1.90080000       4.61765000      -0.07721000       0.02772000       0.12549000
O       10.56146000       4.09827000       0.75557000       2.15150000      -0.01398000       0.59360000
H        9.79738000       4.46143000       0.36036000      -1.57592000       0.51699000      -0.65951000
H       11.22112000       4.81142000       0.72030000      -0.32440000      -0.49105000       0.09634000
O        0.78375000       2.42059000       3.02430000       0.20301000      -0.84559000       1.01450000
H        1.04680000       2.12604000       3.94455000      -0.41275000       0.67551000      -1.09745000
H        1.03035000       1.61520000       2.54892000      -0.15548000       0.32687000      -0.36071000
O        9.27985000       8.77053000       5.71617000       0.91632000      -0.16508000      -0.59935000
H        8.33785000       8.78014000       5.85466000      -0.63924000       0.32018000       0.12034000
H        9.34991000       8.51174000       4.77626000       0.04203000       0.18709000       0.54783000
O       -0.00542000       6.58924000       1.16906000       0.21898000       1.18751000      -0.19973000
H        0.33128000       7.40014000       0.73750000      -0.31309000      -0.85727000       0.15878000
H        0.72365000       5.97082000       1.19675000       0.22561000      -0.33536000      -0.09041000
O        5.73984000       0.96597000       1.73167000       0.09778000      -0.18901000       0.02347000
H        5.71259000       1.91476000       1.84042000       0.59202000       0.83436000      -0.12934000
H        4.80191000       0.82122000       1.75709000      -0.79278000      -0.47057000      -0.66820000