22
Lattice="100.0 0.0 0.0 0.0 100.0 0.0 0.0 0.0 100.0" Properties=species:S:1:pos:R:3:forces:R:3 config_type=vacuum energy=-11580.50581788 pbc="T T T"
C       -0.08876000       1.82017000       0.92796000       0.55538000       0.23098000       0.28277000
C       -0.90085000       0.74826000       1.63670000      -0.94705000       0.37328000      -0.52884000
C        0.09250000      -0.18695000       2.11142000      -0.72107000      -1.52372000      -0.58057000
H       -1.72059000       1.06319000       2.28865000       0.22790000      -0.24911000      -0.20128000
C        1.19701000      -0.11887000       1.27425000       0.29848000      -1.15949000       0.88745000
H       -0.14901000      -1.05737000       2.74145000       0.24421000       0.76575000      -0.09867000
C        0.96663000       0.90501000       0.41003000       1.18370000       1.41736000      -2.60452000
H        2.05371000      -0.81049000       1.15670000      -0.91932000       0.43279000       0.41239000
H        1.70547000       1.14858000      -0.36051000      -0.41067000       0.27427000       0.33385000
H        0.34926000       2.51055000       1.66621000       0.14535000      -0.37142000       0.07489000
H       -0.56113000       2.48904000       0.21597000      -0.31679000      -0.45262000      -0.21642000
C       -0.74970000      -0.12382000      -1.00657000       0.45912000       1.68439000       1.09411000
C       -1.70142000       0.11271000       0.06660000       0.30420000      -0.74913000      -0.89873000
H       -2.37726000       0.90319000      -0.28829000       0.05542000      -0.23527000       0.84189000
H       -2.20046000      -0.81952000       0.31857000      -0.07835000       0.24755000       0.49233000
C        0.01360000      -1.31701000      -1.20824000      -0.40118000      -1.98821000       2.68293000
H       -0.67687000       0.60284000      -1.81531000       0.00380000       0.05093000       0.29799000
O       -0.07928000      -2.28741000      -0.41528000      -0.05606000       1.34434000      -1.24424000
C        1.02774000      -1.33309000      -2.27879000      -0.21204000       0.17768000      -1.31281000
H        1.59818000      -0.40787000      -2.26393000       0.21474000      -0.06042000       0.01484000
H        0.52604000      -1.36905000      -3.26215000       0.08539000      -0.00967000       0.29590000
H        1.64591000      -2.20908000      -2.18663000       0.30845000      -0.13957000       0.09175000
22
Lattice="100.0 0.0 0.0 0.0 100.0 0.0 0.0 0.0 100.0" Properties=species:S:1:pos:R:3:forces:R:3 config_type=vacuum energy=-11580.11002826 pbc="T T T"
C       -0.10057000       1.79161000       0.91535000      -0.47216000       1.85645000      -0.70350000
C       -0.87223000       0.84156000       1.68152000      -0.28428000      -1.87238000       2.33227000
C        0.00905000      -0.16768000       2.13816000      -0.13519000       1.15274000      -2.34055000
H       -1.75918000       1.12041000       2.26019000       0.31262000      -0.05938000      -0.34444000
C        1.15341000      -0.11752000       1.25008000      -0.80935000       0.09464000       2.02405000
H       -0.34947000      -0.88481000       2.84283000       0.46996000      -0.55814000       0.26400000
C        0.99457000       0.96463000       0.41174000       1.43380000      -0.62844000      -0.69775000
H        1.97262000      -0.81323000       1.32063000      -0.00668000      -0.03694000      -0.38984000
H        1.73891000       1.29963000      -0.30980000      -0.24854000      -0.03823000       0.27112000
H        0.28412000       2.52319000       1.64088000       0.14284000       0.02134000      -0.20945000
H       -0.73079000       2.31470000       0.18864000       0.54754000       0.12092000      -0.00845000
C       -0.66174000      -0.10152000      -0.95638000      -0.24300000       1.10356000      -0.86282000
C       -1.65296000      -0.05110000      -0.01937000       0.02640000      -3.50598000       0.67082000
H       -2.28223000       0.73247000       0.13036000      -2.03686000       1.91558000      -0.68291000
H       -2.07181000      -1.05505000       0.26940000       0.75356000       1.26163000       0.35354000
C        0.07500000      -1.29515000      -1.19574000      -1.97092000      -3.08837000       2.02015000
H       -0.69320000       0.53336000      -1.81974000       0.40570000       1.06009000       0.11106000
O       -0.08160000      -2.26712000      -0.41082000       0.80290000       1.56172000      -1.49898000
C        0.98782000      -1.36457000      -2.34496000       1.43712000       0.03744000       0.79022000
H        1.66330000      -0.52051000      -2.14720000       0.38757000      -0.40294000      -0.32891000
H        0.62644000      -1.23307000      -3.34067000      -0.90694000       0.22819000      -0.45951000
H        1.47417000      -2.33210000      -2.24198000       0.40412000       0.20108000      -0.27397000
124
Lattice="100.0 0.0 0.0 0.0 100.0 0.0 0.0 0.0 100.0" Properties=species:S:1:pos:R:3:forces:R:3 config_type=reactants_in_water energy=-82337.12237592 pbc="T T T"
C        5.64629000       7.23775000       6.65136000       0.74193000       0.20319000       0.08621000
C        4.80922000       6.24456000       7.39897000      -0.90046000       0.75220000       0.47963000
C        5.63443000       5.21005000       7.80900000       0.37985000       0.67649000      -0.42233000
H        3.86224000       6.59050000       7.87352000       1.12516000      -0.95359000      -0.64649000
C        6.86762000       5.33025000       7.11069000       0.15022000       0.27894000       0.06765000
H        5.32288000       4.36785000       8.38780000       0.08836000      -0.39766000       0.26802000
C        6.84641000       6.43204000       6.26198000      -1.05029000      -1.04314000       0.83600000
H        7.67542000       4.62202000       7.24232000      -0.09045000      -0.10341000      -0.25362000
H        7.59321000       6.75358000       5.55421000      -0.05881000       0.02179000       0.26027000
H        5.97656000       7.99856000       7.36942000      -0.05048000       0.01423000      -0.18487000
H        5.17854000       7.71341000       5.80956000      -0.11895000       0.43285000       0.06665000
C        4.97258000       5.38400000       4.87023000       0.52358000      -0.44822000      -0.99755000
C        3.90254000       5.51048000       5.73024000      -0.30596000      -0.64586000      -0.48751000
H        3.16255000       6.33006000       5.53328000       0.84430000      -0.89733000       0.54477000
H        3.52417000       4.57871000       6.18642000       0.01333000       0.81088000      -0.21823000
C        5.76162000       4.12742000       4.71137000       0.09714000       1.49010000      -0.04383000
H        5.16864000       6.14115000       4.07789000      -0.22581000      -0.72347000       0.85953000
O        5.77449000       3.16558000       5.46964000      -0.10157000       0.56489000      -0.41630000
C        6.62846000       4.17763000       3.45301000       0.15995000      -0.24541000       0.13138000
H        7.51224000       4.83743000       3.47850000      -0.42714000      -0.23714000       0.60198000
H        6.03763000       4.53911000       2.61016000      -0.22524000      -0.19585000       0.16033000
H        7.00237000       3.17419000       3.24916000      -0.11395000       0.05942000      -0.13493000
O        3.17887000       5.39372000       2.72048000       0.16030000       0.93763000      -0.94287000
H        2.65727000       5.88511000       3.32977000      -0.54449000       0.70708000       0.53200000
H        3.49661000       4.66417000       3.22867000       0.03417000      -0.85836000       0.10036000
O        1.22004000       7.97123000       7.20626000       0.04372000       0.13715000       0.39603000
H        1.64663000       8.15338000       6.37919000       0.47493000       0.12626000      -0.61101000
H        0.31893000       7.78699000       6.94619000      -0.37994000      -0.17023000       0.14996000
O        7.85688000       4.07097000       0.90706000      -0.13205000      -0.50341000      -1.59698000
H        8.41741000       3.50431000       1.42136000       0.57804000      -0.59310000       0.62695000
H        7.62733000       4.76323000       1.49791000      -0.36303000       0.86391000       0.84093000
O        6.78301000       1.33466000       7.83954000       1.55796000       0.42099000      -0.34921000
H        6.68787000       1.47554000       6.87959000       0.12339000       0.01330000       0.56318000
H        7.70959000       1.61686000       8.07311000      -1.40633000      -0.69600000      -0.24316000
O        2.68121000       8.27972000       2.18564000      -0.16023000      -0.88075000       0.56243000
H        3.17011000       8.89553000       1.68054000       1.20777000       0.68267000      -1.06052000
H        1.97779000       8.83600000       2.46833000      -1.16790000       0.56998000       0.67494000
O        6.34844000       5.54488000      11.03670000       1.09651000      -0.38750000       1.28023000
H        6.32028000       6.48735000      11.10693000       0.13286000       0.87427000       0.06965000
H        5.71042000       5.33055000      10.39878000      -1.28895000      -0.53562000      -1.43630000
O        3.27786000       3.23482000       1.62835000       0.43846000      -1.80536000       1.74105000
H        3.53673000       3.44570000       0.75857000       0.31722000       0.32940000      -1.57537000
H        3.35808000       2.26267000       1.70267000      -0.67947000       0.85723000      -0.50888000
O        4.57987000       0.99777000       4.26338000       2.51258000      -0.18119000      -0.95095000
H        5.48687000       1.02846000       3.81433000      -1.72364000       0.39037000       0.73967000
H        4.68633000       0.17157000       4.71834000      -0.26221000      -0.76243000       0.68748000
O        9.78197000       3.12329000       3.42519000      -1.77697000      -0.72076000      -0.16803000
H        9.70333000       3.69095000       4.17481000      -0.02609000       0.86134000       0.61476000
H       10.67152000       3.15124000       3.15286000       1.59601000       0.18748000      -0.76198000
O        1.81307000       4.22248000       8.41624000      -0.65190000      -0.74215000      -0.04204000
H        1.35488000       3.40332000       8.72115000       0.45047000       0.97750000      -0.15035000
H        2.70450000       4.09687000       8.74856000       0.23184000      -0.14178000      -0.03002000
O        2.21545000       1.43532000       5.15917000      -0.39940000      -0.06272000       0.27791000
H        2.54792000       2.06473000       5.80938000       0.21458000      -0.20051000      -0.14349000
H        2.97980000       1.11683000       4.64868000      -0.27034000       0.62693000       0.34753000
O       10.60841000       4.04309000       0.56519000       0.44808000      -1.03065000       0.28047000
H        9.74032000       4.31244000       0.30885000      -1.04950000       0.23174000      -0.27779000
H       11.12633000       4.82549000       0.51656000       0.76964000       0.90922000      -0.01763000
O        0.74352000       2.21736000       3.02759000       0.04069000       0.07969000       0.69795000
H        1.23875000       2.20748000       3.88723000      -0.60947000      -0.20588000      -0.84385000
H        1.07825000       1.43974000       2.58179000       0.16355000      -0.04129000       0.04732000
O        9.39968000       8.77824000       5.98234000      -0.43649000       0.87532000       0.71253000
H        9.16919000       7.86310000       5.92599000       0.02216000      -0.85491000      -0.04779000
H        9.99959000       8.89842000       5.26504000       0.67369000       0.08312000      -0.71276000
O       -0.03784000       6.67436000       1.18810000       0.35199000       0.57891000       1.37900000
H        0.54795000       7.16074000       1.81680000      -0.58075000      -0.89426000      -0.85549000
H        0.25124000       6.98513000       0.33925000       0.25280000       0.13770000      -0.62400000
O        5.61078000       0.85705000       1.89305000      -0.33941000       0.28420000       0.05910000
H        5.87148000       1.61644000       1.38232000       0.70626000       0.37892000      -0.64095000
H        4.80437000       1.22109000       2.28967000       0.00891000      -0.62697000      -0.12125000
O        9.58989000       7.49754000      10.13948000       0.47180000       1.34118000      -0.27590000
H       10.07521000       8.17086000      10.66475000      -0.45060000      -0.82823000      -0.32857000
H        9.41521000       7.98971000       9.31041000       0.03785000      -0.49179000       0.53257000
O        4.58446000       2.11182000       8.93628000      -0.05306000       0.88366000       0.54646000
H        5.50146000       1.82845000       8.74388000       0.11147000       0.14980000      -0.30053000
H        4.10173000       1.30255000       8.91779000      -0.66117000      -0.77597000      -0.01078000
O        3.50709000       8.37250000       9.37395000       0.21184000       0.91993000      -1.89358000
H        3.53789000       8.88276000       8.50720000      -0.05800000      -0.70010000       1.73456000
H        3.25249000       7.51275000       9.01775000      -0.34470000       0.11058000       0.66461000
O        7.41093000       6.84329000       1.07769000       0.91625000      -1.00867000      -1.20102000
H        6.64482000       7.30763000       0.77222000      -0.70698000       0.32966000      -0.30228000
H        7.73058000       6.29515000       0.31325000      -0.48823000       0.79372000       0.94325000
O        9.01845000       1.18950000       9.82094000       1.03405000       1.42232000      -1.33365000
H        9.03571000       1.94141000      10.44089000      -0.17164000      -0.18846000      -0.13196000
H        9.49883000       1.60214000       9.04429000      -0.63147000      -0.77922000       1.15561000
O        8.80131000       4.09027000      10.81178000      -0.14487000      -1.26294000       0.33048000
H        9.09960000       4.83348000      10.32132000       0.65587000       1.02986000      -0.61668000
H        7.90516000       4.34745000      11.02950000      -0.49181000       0.14642000       0.21202000
O        8.34530000       1.28843000       5.28901000      -0.58667000       1.02559000       0.02633000
H        8.34451000       0.64142000       4.58917000       0.17517000      -0.24249000      -0.37124000
H        7.89601000       2.06717000       4.90237000       0.08880000      -0.63990000       0.18905000
O        1.55477000       2.76011000      10.73126000       1.83665000      -0.02740000       0.23544000
H        2.53172000       2.80452000      10.90918000      -1.20434000      -0.00653000      -0.55686000
H        1.26253000       2.23162000      11.46513000      -0.54604000      -0.38202000       0.38364000
O        0.80199000       6.69655000      10.32335000      -0.27498000       1.18201000       0.43451000
H        0.85376000       6.00744000       9.68256000       0.22805000      -1.00356000      -0.87315000
H        1.34180000       6.42107000      11.05597000       0.24768000      -0.27143000       0.33805000
O        9.12247000       6.80635000       3.07813000       3.24972000       0.00485000      -0.22807000
H        8.40044000       6.75510000       3.62903000      -2.33826000      -0.28806000       2.17766000
H        8.73412000       7.01656000       2.25819000      -0.60680000       0.42967000      -1.69388000
O        6.71511000       9.62342000       4.47016000       1.75232000      -0.70544000      -0.40668000
H        5.92007000       9.96256000       4.07419000      -0.15416000       0.15252000      -0.53870000
H        7.42408000       9.42208000       3.80219000      -1.49725000       0.52586000       0.86894000
O        2.01195000       0.97003000       0.46144000      -1.29322000      -0.52288000      -0.32011000
H        2.04545000       0.69355000      -0.46748000       0.21563000       0.06750000       0.37286000
H        1.05206000       0.88151000       0.66630000       1.03005000       0.34084000      -0.14370000
O        5.01843000      10.11078000       6.67917000      -0.91286000      -0.37799000      -0.39440000
H        4.10175000      10.33827000       6.84012000      -0.28115000       0.22183000      -0.03670000
H        5.47294000      10.59476000       7.34930000       0.74517000       0.62462000       0.62767000
O        4.26995000      11.09712000      10.13464000      -1.57621000       1.08840000       0.22472000
H        3.33787000      10.80025000      10.25537000       0.69794000       0.47161000      -0.09502000
H        4.68504000      10.31690000       9.83766000       0.86500000      -1.47734000      -0.23616000
O       10.03527000       9.58584000       1.00084000       0.65413000      -0.01619000       0.79905000
H        9.09194000       9.57351000       0.90754000      -0.72877000      -0.01943000      -0.17444000
H       10.16727000       9.58370000       1.96575000       0.03902000      -0.06876000      -0.59804000
O        9.96243000       5.95197000       5.75941000       0.72757000      -0.40867000      -0.55713000
H       10.89107000       5.66113000       5.71876000      -0.54644000       0.35006000      -0.14920000
H        9.72209000       5.79221000       6.66349000      -0.30997000      -0.27334000       0.82035000
O        9.98430000       2.76266000       7.06803000      -2.26969000       0.43679000      -0.57043000
H        9.57805000       2.70838000       6.16851000       0.62777000      -0.48897000       1.14721000
H       10.90799000       2.77917000       6.95908000       1.70584000      -0.10037000      -0.28792000
O        1.06166000      10.18904000      10.23854000      -0.34918000      -0.55683000      -0.47824000
H        0.24260000      10.18940000       9.71334000       0.51752000       0.18462000       0.28978000
H        1.28240000       9.24052000      10.26353000       0.08881000       0.26538000      -0.03611000
22
Lattice="100.0 0.0 0.0 0.0 100.0 0.0 0.0 0.0 100.0" Properties=species:S:1:pos:R:3:forces:R:3 config_type=vacuum energy=-11580.65292032 pbc="T T T"
C       -0.12122000       1.80949000       0.92667000      -0.77842000      -0.05935000       0.20285000
C       -0.90615000       0.73556000       1.72702000       1.16711000       0.43448000       0.29947000
C        0.02709000      -0.25343000       2.06569000       0.41484000       0.66362000      -0.38462000
H       -1.72308000       0.99826000       2.38981000      -0.10405000      -0.03756000      -0.30956000
C        1.15098000      -0.08146000       1.23455000       0.34591000      -0.08460000       0.41085000
H       -0.07981000      -1.05681000       2.78651000      -0.16898000       0.18595000      -0.21472000
C        0.97886000       0.98390000       0.37161000       0.03378000      -1.12604000       0.49751000
H        2.03038000      -0.70490000       1.22403000      -0.16394000      -0.31117000      -0.07892000
H        1.69857000       1.15966000      -0.40486000       0.04196000       0.75828000      -0.02716000
H        0.27467000       2.54692000       1.64171000       0.00265000      -0.19828000      -0.12303000
H       -0.72601000       2.32082000       0.18231000       0.09101000       0.17170000       0.13051000
C       -0.65436000      -0.05227000      -0.90724000      -0.47800000       0.24352000      -1.18267000
C       -1.73692000      -0.02608000      -0.06845000      -0.29087000       0.07156000       1.43423000
H       -2.36913000       0.86120000      -0.02624000      -0.19289000      -0.63797000      -0.48710000
H       -2.06668000      -0.92489000       0.46425000       0.00555000       0.39638000      -0.62079000
C        0.06286000      -1.27032000      -1.15483000       0.37072000      -3.07543000       0.34759000
H       -0.61539000       0.63774000      -1.72737000       0.25646000       0.68741000       0.00517000
O       -0.07769000      -2.25378000      -0.41567000       0.09020000       1.07645000      -0.56317000
C        1.05821000      -1.38682000      -2.32747000       0.01604000       1.50931000       1.26547000
H        1.65845000      -0.46976000      -2.20968000       0.20625000      -0.29954000      -0.27390000
H        0.58620000      -1.28051000      -3.30014000      -0.18200000      -0.37040000      -0.03537000
H        1.71521000      -2.25052000      -2.18811000      -0.47512000       0.12571000      -0.26815000
109
Lattice="100.0 0.0 0.0 0.0 100.0 0.0 0.0 0.0 100.0" Properties=species:S:1:pos:R:3:forces:R:3 config_type=reactants_in_water energy=-71928.28254525 pbc="T T T"
C        5.68346000       7.18986000       6.64891000       0.08833000      -0.13824000      -0.32009000
C        4.87191000       6.17740000       7.41838000      -0.17069000       0.26874000      -0.93407000
C        5.76285000       5.17128000       7.80558000      -0.01185000       0.00458000      -0.06344000
H        3.99704000       6.44672000       7.99201000       0.32112000      -0.22880000      -0.80755000
C        6.91477000       5.25013000       7.02144000       0.19382000      -0.11956000       0.01222000
H        5.53927000       4.37712000       8.50069000      -0.04829000      -0.10358000      -0.06887000
C        6.78320000       6.30828000       6.13985000       0.06622000       0.19271000       0.09089000
H        7.70367000       4.51517000       7.00683000       0.02316000      -0.05104000       0.04794000
H        7.53838000       6.63622000       5.44209000       0.04444000       0.05902000      -0.01347000
H        6.11653000       7.89680000       7.36627000       0.06507000       0.03628000      -0.08751000
H        5.14232000       7.75235000       5.89481000       0.21660000      -0.08255000       0.23096000
C        5.10394000       5.32733000       4.80340000       0.03242000      -0.17591000      -0.08083000
C        4.05770000       5.36098000       5.71525000      -0.19120000      -0.76360000       0.16008000
H        3.29633000       6.12216000       5.61504000       0.79205000      -0.68023000       0.02764000
H        3.72848000       4.41837000       6.12557000       0.27330000      -0.24739000       0.04185000
C        5.82878000       4.07143000       4.59485000      -0.23447000       0.30963000       0.16829000
H        5.23046000       6.11091000       4.06977000       0.03797000       0.09513000       0.02886000
O        5.66512000       3.10913000       5.32338000       0.07381000      -0.15443000      -0.13242000
C        6.80456000       4.02397000       3.44137000       0.05452000       0.00406000       0.04069000
H        7.47298000       4.88474000       3.46615000       0.03420000       0.01570000       0.01251000
H        6.25537000       4.06411000       2.49931000      -0.07451000      -0.07270000       0.03202000
H        7.37889000       3.10320000       3.48301000       0.00046000      -0.01619000      -0.08313000
O        2.71207000       2.38731000       9.42646000       0.72868000       0.66549000       1.03052000
H        3.27302000       2.28782000      10.23643000      -0.85999000       0.30831000      -1.14032000
H        2.53162000       3.35919000       9.36745000       0.08250000      -1.00094000       0.11474000
O        3.01901000       7.80233000       5.65680000      -0.97640000       1.11536000      -1.14526000
H        2.13507000       7.42419000       5.41961000       0.92634000       1.18163000       0.10444000
H        3.24579000       8.39755000       4.89859000      -0.47949000      -0.89747000       0.83371000
O        0.79147000       6.14795000       0.94652000       0.32155000      -1.55746000       0.59432000
H        1.64853000       5.82317000       1.32146000      -1.17627000       0.44825000      -0.56102000
H        0.19189000       5.36055000       0.97970000       0.88564000       1.05650000      -0.07970000
O        1.03340000       4.60254000       7.59454000       0.14108000      -0.14595000      -1.47687000
H        0.58201000       3.99400000       6.95694000       0.80768000       0.84682000       0.63424000
H        1.72254000       5.06294000       7.05260000      -0.88149000      -0.65439000       0.71872000
O        5.80946000       9.25256000       3.21685000       0.68934000       0.40685000      -0.92402000
H        6.70662000       8.90920000       2.97638000      -1.03596000       0.49487000       0.04109000
H        5.68757000      10.05096000       2.64388000       0.24822000      -1.04633000       0.83424000
O        4.04738000       6.37252000       9.80994000       1.46420000      -0.28158000       2.30851000
H        4.28709000       5.51282000      10.23898000      -0.45220000       1.26580000      -0.43688000
H        4.83894000       6.95018000       9.95252000      -1.11648000      -0.82828000      -0.08353000
O        8.03250000       8.40388000       1.54812000       1.46716000      -0.47946000      -0.69288000
H        8.92395000       8.15026000       1.89682000      -1.14025000       0.46366000      -0.44032000
H        8.15836000       8.46745000       0.56796000      -0.30102000      -0.16983000       1.32878000
O        0.57364000       1.48204000       6.51962000       0.43145000       0.90236000       1.12298000
H        0.06703000       2.05815000       7.14577000       0.77025000      -1.04466000      -0.64011000
H        1.47335000       1.40499000       6.92606000      -1.12931000       0.13351000      -0.35877000
O        3.16076000       2.97641000       0.50817000       0.93822000       2.36373000       1.66018000
H        3.85067000       3.59354000       0.86000000      -0.92931000      -0.40077000      -0.48656000
H        2.43075000       3.01351000       1.17623000       1.17472000      -0.07701000      -1.09932000
O        3.25578000       9.05431000       2.05685000       0.91032000      -0.55907000      -1.10631000
H        3.23529000       9.04162000       1.06689000      -0.12283000      -0.07525000       1.37678000
H        4.12932000       8.65159000       2.29212000      -0.83268000       0.56374000      -0.19235000
O        6.13660000       5.70253000       0.30017000       0.40917000      -1.11718000       1.08469000
H        6.29141000       5.82795000       1.27018000      -0.10563000      -0.10145000      -1.34275000
H        6.43738000       4.77670000       0.11858000      -0.35937000       1.24069000       0.21430000
O        1.76442000       7.59147000      10.21897000      -0.48412000       0.58610000      -1.76409000
H        2.42000000       7.54429000       9.47829000      -0.99626000      -0.27291000       1.29273000
H        1.13260000       8.30347000       9.94611000       1.04105000      -1.07046000       0.54701000
O       10.17502000       8.25959000       7.21817000       1.24314000      -1.21693000       0.35772000
H       10.67289000       7.88809000       7.98935000      -0.69097000       0.35568000      -1.19865000
H       10.52893000       7.76847000       6.43450000      -0.31181000       0.51296000       1.09910000
O       10.22504000       2.18086000       7.34345000       0.51024000      -1.02347000      -0.72390000
H       10.99869000       2.37193000       6.75559000      -1.28385000      -0.01186000       0.61236000
H        9.84732000       1.33653000       6.98988000       0.46897000       1.11585000       0.48980000
O        5.60137000       0.78320000       9.62190000      -0.52760000       1.18450000       1.22482000
H        4.71460000       0.85892000      10.05609000       1.28187000      -0.19512000      -0.68840000
H        6.17450000       1.42266000      10.11505000      -0.73252000      -0.96929000      -0.59180000
O        4.14335000       9.71665000       8.64613000      -1.05109000      -0.81842000       0.77575000
H        4.04591000       9.87937000       9.61806000      -0.07304000      -0.22136000      -1.08022000
H        3.55013000       8.94519000       8.46302000       0.95422000       1.01986000       0.09588000
O       10.58241000       3.01504000       4.86215000      -0.83402000      -0.99828000      -1.22548000
H       10.77072000       2.16926000       4.38277000      -0.33618000       1.22531000       0.45738000
H        9.59431000       3.07934000       4.87308000       1.29939000      -0.11186000       0.10636000
O        6.49770000       9.36493000       9.97238000       0.06795000      -0.83196000      -0.96846000
H        6.08950000       9.72422000       9.14480000       0.12850000      -0.68994000       1.01590000
H        6.51695000       8.38457000       9.83416000      -0.03199000       1.42082000       0.01954000
O        4.42882000       0.35719000       2.95916000       1.36201000       0.83785000      -0.48135000
H        4.50233000       1.33756000       3.07777000      -0.05770000      -1.30805000      -0.05430000
H        5.34273000       0.06810000       2.71060000      -1.26976000       0.40315000       0.54158000
O        1.36582000       9.64249000       5.18750000      -0.13619000       1.97550000      -0.26174000
H        2.23989000      10.10718000       5.16145000      -1.31258000      -0.45547000       0.06862000
H        0.70342000      10.34795000       4.97740000       0.96444000      -0.91791000       0.13730000
O        0.98877000       4.19819000      10.67214000      -0.94371000      -0.85258000      -0.88124000
H        0.96554000       3.21040000      10.60611000      -0.10436000       1.26875000       0.00771000
H        0.33901000       4.50767000       9.99197000       1.03869000      -0.28801000       0.80842000
O        7.70847000       1.10063000       0.72518000      -0.69329000      -1.44960000       0.39508000
H        6.77860000       0.89948000       0.99994000       1.22208000       0.26574000      -0.51100000
H        8.14425000       0.21406000       0.65673000      -0.60868000       1.20819000       0.07489000