22
Lattice="100.0 0.0 0.0 0.0 100.0 0.0 0.0 0.0 100.0" Properties=species:S:1:pos:R:3:forces:R:3 config_type=vacuum energy=-11580.31377307 pbc="T T T"
C       -0.12827000       1.81513000       0.90817000       1.48812000      -0.35879000       0.49729000
C       -0.89711000       0.75609000       1.70321000      -1.72494000       3.78954000      -2.11933000
C       -0.04458000      -0.17501000       2.04658000       3.85844000      -3.10015000       0.82176000
H       -1.76190000       1.05168000       2.22920000      -0.85108000      -0.02896000       0.58305000
C        1.17435000      -0.07452000       1.27315000      -0.64559000      -3.60458000       2.79204000
H       -0.23933000      -0.99026000       2.71237000      -0.10592000      -0.22175000       0.26188000
C        1.01727000       0.88517000       0.41771000      -0.51476000       5.03040000      -3.03770000
H        1.94964000      -0.83280000       1.20483000      -0.22901000       0.14596000       0.34269000
H        1.74611000       1.25822000      -0.31578000      -0.34081000      -0.33446000       0.41031000
H        0.34774000       2.52760000       1.62841000      -0.31372000      -0.43644000      -0.41229000
H       -0.65261000       2.40573000       0.15828000      -0.02961000      -0.30805000       0.06799000
C       -0.62292000      -0.07824000      -0.95407000      -2.43973000       2.30644000       1.18973000
C       -1.68092000       0.03165000      -0.00279000       0.80139000      -3.99614000      -0.33553000
H       -2.47655000       0.70790000      -0.12698000      -0.53105000       1.05576000      -0.14322000
H       -2.04115000      -0.98915000       0.40372000       0.63462000       1.83781000      -0.67118000
C        0.06058000      -1.29692000      -1.15859000       0.62626000      -0.79632000      -0.04372000
H       -0.52920000       0.74358000      -1.65193000       0.29319000      -0.18048000      -0.14942000
O       -0.08690000      -2.24701000      -0.41978000      -0.22229000      -0.74015000       0.65438000
C        1.02435000      -1.35921000      -2.28832000       0.97522000       0.27400000      -0.01466000
H        1.72899000      -0.52304000      -2.25427000      -0.20639000       0.03129000      -0.08236000
H        0.51220000      -1.35044000      -3.21884000      -0.65186000       0.37608000      -0.90244000
H        1.60020000      -2.26615000      -2.29429000       0.18915000      -0.45411000       0.38214000
22
Lattice="100.0 0.0 0.0 0.0 100.0 0.0 0.0 0.0 100.0" Properties=species:S:1:pos:R:3:forces:R:3 config_type=vacuum energy=-11580.50706075 pbc="T T T"
C       -0.12027000       1.81047000       0.91412000       1.04000000       0.28650000      -0.24532000
C       -0.89206000       0.76843000       1.69938000      -1.29258000       2.59919000      -1.28884000
C       -0.02689000      -0.18187000       2.04033000       2.77046000      -2.06455000       0.69222000
H       -1.76680000       1.04541000       2.24610000      -0.39222000      -0.06481000       0.25136000
C        1.17559000      -0.06895000       1.27180000      -0.39232000      -2.63767000       1.55436000
H       -0.21927000      -0.99354000       2.71602000      -0.08031000      -0.14998000       0.14579000
C        1.02684000       0.90932000       0.39121000      -1.05061000       3.12887000      -1.03963000
H        1.94542000      -0.83676000       1.21403000      -0.20247000       0.24832000       0.27051000
H        1.75495000       1.27547000      -0.31275000       0.08249000      -0.05243000      -0.09193000
H        0.34274000       2.52730000       1.63299000      -0.23242000      -0.37501000      -0.38800000
H       -0.66613000       2.39513000       0.15352000       0.23679000      -0.42174000       0.43081000
C       -0.62685000      -0.08153000      -0.93939000      -1.77383000       2.28288000       0.33518000
C       -1.68513000       0.02915000      -0.02272000       0.45044000      -3.88874000       0.32414000
H       -2.47933000       0.70491000      -0.13198000      -0.58804000       1.16329000      -0.21485000
H       -2.04879000      -0.97349000       0.41156000       0.63264000       1.66602000      -0.71932000
C        0.05863000      -1.31659000      -1.15100000       0.82171000       1.64956000      -1.60612000
H       -0.53228000       0.73837000      -1.65008000       0.29232000      -0.35687000      -0.02408000
O       -0.08664000      -2.24385000      -0.43952000      -0.64282000      -3.05464000       2.48475000
C        1.01129000      -1.38389000      -2.28811000       1.20377000       1.75377000       0.08405000
H        1.72938000      -0.53146000      -2.27691000      -0.63747000      -0.32875000       0.03059000
H        0.49561000      -1.34496000      -3.20862000      -0.73165000       0.15447000      -1.11505000
H        1.60999000      -2.24709000      -2.27000000       0.52528000      -1.30658000       0.22575000
22
Lattice="100.0 0.0 0.0 0.0 100.0 0.0 0.0 0.0 100.0" Properties=species:S:1:pos:R:3:forces:R:3 config_type=vacuum energy=-11580.41208101 pbc="T T T"
C       -0.13175000       1.80326000       0.92417000       1.47408000       0.30507000      -0.45435000
C       -0.90473000       0.76683000       1.70403000      -0.44069000       2.39135000      -1.83807000
C       -0.04403000      -0.18250000       2.04334000       3.35240000      -2.09551000       0.51585000
H       -1.75281000       1.05188000       2.23584000      -1.34143000       0.13407000       0.82232000
C        1.19023000      -0.06305000       1.28035000      -1.03696000      -3.74895000       2.81349000
H       -0.23814000      -0.99642000       2.70569000      -0.12862000      -0.31936000       0.31943000
C        1.02672000       0.88488000       0.41732000      -0.99216000       5.03598000      -2.59687000
H        1.95351000      -0.82382000       1.21016000      -0.02826000      -0.00955000       0.34295000
H        1.72641000       1.25165000      -0.33133000      -0.07730000      -0.18938000       0.24397000
H        0.33497000       2.52918000       1.62912000      -0.21343000      -0.41196000      -0.27903000
H       -0.64262000       2.40323000       0.15222000       0.07783000      -0.53731000       0.39520000
C       -0.64399000      -0.08316000      -0.96135000      -1.74048000       1.63995000       1.08523000
C       -1.68190000       0.01820000      -0.00370000       0.18564000      -3.14183000      -0.60366000
H       -2.49094000       0.70129000      -0.12027000      -0.11295000       0.74615000      -0.08095000
H       -2.04273000      -0.98029000       0.39206000       0.53788000       1.33065000      -0.42279000
C        0.07571000      -1.30359000      -1.15990000      -0.13148000      -0.16083000       0.24595000
H       -0.52583000       0.74758000      -1.63586000       0.24334000      -0.03884000      -0.29590000
O       -0.08394000      -2.24670000      -0.41660000      -0.06949000      -0.80279000       0.61530000
C        1.02858000      -1.35631000      -2.28682000       0.95724000       0.28332000      -0.10385000
H        1.73328000      -0.52889000      -2.25784000      -0.06906000       0.21511000      -0.02547000
H        0.51580000      -1.33543000      -3.21368000      -0.74299000       0.37966000      -0.97506000
H        1.59821000      -2.25783000      -2.30697000       0.35264000      -0.71244000       0.37619000
22
Lattice="100.0 0.0 0.0 0.0 100.0 0.0 0.0 0.0 100.0" Properties=species:S:1:pos:R:3:forces:R:3 config_type=vacuum energy=-11580.50581788 pbc="T T T"
C       -0.08876000       1.82017000       0.92796000       0.55538000       0.23098000       0.28277000
C       -0.90085000       0.74826000       1.63670000      -0.94705000       0.37328000      -0.52884000
C        0.09250000      -0.18695000       2.11142000      -0.72107000      -1.52372000      -0.58057000
H       -1.72059000       1.06319000       2.28865000       0.22790000      -0.24911000      -0.20128000
C        1.19701000      -0.11887000       1.27425000       0.29848000      -1.15949000       0.88745000
H       -0.14901000      -1.05737000       2.74145000       0.24421000       0.76575000      -0.09867000
C        0.96663000       0.90501000       0.41003000       1.18370000       1.41736000      -2.60452000
H        2.05371000      -0.81049000       1.15670000      -0.91932000       0.43279000       0.41239000
H        1.70547000       1.14858000      -0.36051000      -0.41067000       0.27427000       0.33385000
H        0.34926000       2.51055000       1.66621000       0.14535000      -0.37142000       0.07489000
H       -0.56113000       2.48904000       0.21597000      -0.31679000      -0.45262000      -0.21642000
C       -0.74970000      -0.12382000      -1.00657000       0.45912000       1.68439000       1.09411000
C       -1.70142000       0.11271000       0.06660000       0.30420000      -0.74913000      -0.89873000
H       -2.37726000       0.90319000      -0.28829000       0.05542000      -0.23527000       0.84189000
H       -2.20046000      -0.81952000       0.31857000      -0.07835000       0.24755000       0.49233000
C        0.01360000      -1.31701000      -1.20824000      -0.40118000      -1.98821000       2.68293000
H       -0.67687000       0.60284000      -1.81531000       0.00380000       0.05093000       0.29799000
O       -0.07928000      -2.28741000      -0.41528000      -0.05606000       1.34434000      -1.24424000
C        1.02774000      -1.33309000      -2.27879000      -0.21204000       0.17768000      -1.31281000
H        1.59818000      -0.40787000      -2.26393000       0.21474000      -0.06042000       0.01484000
H        0.52604000      -1.36905000      -3.26215000       0.08539000      -0.00967000       0.29590000
H        1.64591000      -2.20908000      -2.18663000       0.30845000      -0.13957000       0.09175000
22
Lattice="100.0 0.0 0.0 0.0 100.0 0.0 0.0 0.0 100.0" Properties=species:S:1:pos:R:3:forces:R:3 config_type=vacuum energy=-11580.41208101 pbc="T T T"
C       -0.13175000       1.80326000       0.92417000       1.47408000       0.30507000      -0.45435000
C       -0.90473000       0.76683000       1.70403000      -0.44069000       2.39135000      -1.83807000
C       -0.04403000      -0.18250000       2.04334000       3.35240000      -2.09551000       0.51585000
H       -1.75281000       1.05188000       2.23584000      -1.34143000       0.13407000       0.82232000
C        1.19023000      -0.06305000       1.28035000      -1.03696000      -3.74895000       2.81349000
H       -0.23814000      -0.99642000       2.70569000      -0.12862000      -0.31936000       0.31943000
C        1.02672000       0.88488000       0.41732000      -0.99216000       5.03598000      -2.59687000
H        1.95351000      -0.82382000       1.21016000      -0.02826000      -0.00955000       0.34295000
H        1.72641000       1.25165000      -0.33133000      -0.07730000      -0.18938000       0.24397000
H        0.33497000       2.52918000       1.62912000      -0.21343000      -0.41196000      -0.27903000
H       -0.64262000       2.40323000       0.15222000       0.07783000      -0.53731000       0.39520000
C       -0.64399000      -0.08316000      -0.96135000      -1.74048000       1.63995000       1.08523000
C       -1.68190000       0.01820000      -0.00370000       0.18564000      -3.14183000      -0.60366000
H       -2.49094000       0.70129000      -0.12027000      -0.11295000       0.74615000      -0.08095000
H       -2.04273000      -0.98029000       0.39206000       0.53788000       1.33065000      -0.42279000
C        0.07571000      -1.30359000      -1.15990000      -0.13148000      -0.16083000       0.24595000
H       -0.52583000       0.74758000      -1.63586000       0.24334000      -0.03884000      -0.29590000
O       -0.08394000      -2.24670000      -0.41660000      -0.06949000      -0.80279000       0.61530000
C        1.02858000      -1.35631000      -2.28682000       0.95724000       0.28332000      -0.10385000
H        1.73328000      -0.52889000      -2.25784000      -0.06906000       0.21511000      -0.02547000
H        0.51580000      -1.33543000      -3.21368000      -0.74299000       0.37966000      -0.97506000
H        1.59821000      -2.25783000      -2.30697000       0.35264000      -0.71244000       0.37619000
22
Lattice="100.0 0.0 0.0 0.0 100.0 0.0 0.0 0.0 100.0" Properties=species:S:1:pos:R:3:forces:R:3 config_type=vacuum energy=-11580.59345095 pbc="T T T"
C       -0.05261000       1.81093000       0.86675000      -2.63016000       0.37585000       0.94912000
C       -0.90184000       0.79822000       1.69188000       2.37013000       0.11549000       0.19667000
C        0.05222000      -0.15444000       2.12334000      -1.74447000      -0.06955000      -0.62859000
H       -1.86339000       0.99107000       2.11250000      -0.11172000       0.27945000       0.59923000
C        1.18761000      -0.08520000       1.29218000       0.07933000       0.26665000      -0.14430000
H       -0.22671000      -0.99990000       2.74115000       0.27141000       0.15650000       0.10486000
C        1.00822000       0.96915000       0.43389000       1.91774000      -1.18491000      -0.64666000
H        1.96852000      -0.82403000       1.19638000      -0.07383000       0.01012000       0.22337000
H        1.64035000       1.28438000      -0.36579000       0.65574000      -0.00832000      -0.18302000
H        0.34688000       2.61874000       1.48426000      -0.14261000      -0.02916000       0.26199000
H       -0.59852000       2.23787000       0.04243000      -0.17047000       0.46819000      -0.06241000
C       -0.68868000      -0.06379000      -0.94733000      -0.59049000      -0.06373000       0.11828000
C       -1.74958000      -0.05101000      -0.05806000       0.58500000      -0.10705000      -0.14496000
H       -2.35083000       0.83771000       0.02935000      -0.45925000      -0.22782000      -0.50930000
H       -2.15429000      -0.99154000       0.34007000       0.38861000       0.57595000      -0.17137000
C        0.04851000      -1.27581000      -1.16641000       0.16455000      -3.32564000       1.09759000
H       -0.46765000       0.74192000      -1.61433000      -0.09226000       0.43175000      -0.17414000
O       -0.10268000      -2.26903000      -0.42164000      -0.10800000       1.59027000      -0.69195000
C        1.02504000      -1.45122000      -2.30968000       0.46701000       0.98318000       0.89254000
H        1.80673000      -0.66580000      -2.20736000      -0.31707000      -0.54823000      -0.27088000
H        0.48981000      -1.28591000      -3.22199000      -0.18865000       0.14826000      -0.74291000
H        1.46174000      -2.45768000      -2.26616000      -0.16328000       0.49503000      -0.01681000
22
Lattice="100.0 0.0 0.0 0.0 100.0 0.0 0.0 0.0 100.0" Properties=species:S:1:pos:R:3:forces:R:3 config_type=vacuum energy=-11580.31377307 pbc="T T T"
C       -0.12827000       1.81513000       0.90817000       1.48812000      -0.35879000       0.49729000
C       -0.89711000       0.75609000       1.70321000      -1.72494000       3.78954000      -2.11933000
C       -0.04458000      -0.17501000       2.04658000       3.85844000      -3.10015000       0.82176000
H       -1.76190000       1.05168000       2.22920000      -0.85108000      -0.02896000       0.58305000
C        1.17435000      -0.07452000       1.27315000      -0.64559000      -3.60458000       2.79204000
H       -0.23933000      -0.99026000       2.71237000      -0.10592000      -0.22175000       0.26188000
C        1.01727000       0.88517000       0.41771000      -0.51476000       5.03040000      -3.03770000
H        1.94964000      -0.83280000       1.20483000      -0.22901000       0.14596000       0.34269000
H        1.74611000       1.25822000      -0.31578000      -0.34081000      -0.33446000       0.41031000
H        0.34774000       2.52760000       1.62841000      -0.31372000      -0.43644000      -0.41229000
H       -0.65261000       2.40573000       0.15828000      -0.02961000      -0.30805000       0.06799000
C       -0.62292000      -0.07824000      -0.95407000      -2.43973000       2.30644000       1.18973000
C       -1.68092000       0.03165000      -0.00279000       0.80139000      -3.99614000      -0.33553000
H       -2.47655000       0.70790000      -0.12698000      -0.53105000       1.05576000      -0.14322000
H       -2.04115000      -0.98915000       0.40372000       0.63462000       1.83781000      -0.67118000
C        0.06058000      -1.29692000      -1.15859000       0.62626000      -0.79632000      -0.04372000
H       -0.52920000       0.74358000      -1.65193000       0.29319000      -0.18048000      -0.14942000
O       -0.08690000      -2.24701000      -0.41978000      -0.22229000      -0.74015000       0.65438000
C        1.02435000      -1.35921000      -2.28832000       0.97522000       0.27400000      -0.01466000
H        1.72899000      -0.52304000      -2.25427000      -0.20639000       0.03129000      -0.08236000
H        0.51220000      -1.35044000      -3.21884000      -0.65186000       0.37608000      -0.90244000
H        1.60020000      -2.26615000      -2.29429000       0.18915000      -0.45411000       0.38214000
22
Lattice="100.0 0.0 0.0 0.0 100.0 0.0 0.0 0.0 100.0" Properties=species:S:1:pos:R:3:forces:R:3 config_type=vacuum energy=-11580.65292032 pbc="T T T"
C       -0.12122000       1.80949000       0.92667000      -0.77842000      -0.05935000       0.20285000
C       -0.90615000       0.73556000       1.72702000       1.16711000       0.43448000       0.29947000
C        0.02709000      -0.25343000       2.06569000       0.41484000       0.66362000      -0.38462000
H       -1.72308000       0.99826000       2.38981000      -0.10405000      -0.03756000      -0.30956000
C        1.15098000      -0.08146000       1.23455000       0.34591000      -0.08460000       0.41085000
H       -0.07981000      -1.05681000       2.78651000      -0.16898000       0.18595000      -0.21472000
C        0.97886000       0.98390000       0.37161000       0.03378000      -1.12604000       0.49751000
H        2.03038000      -0.70490000       1.22403000      -0.16394000      -0.31117000      -0.07892000
H        1.69857000       1.15966000      -0.40486000       0.04196000       0.75828000      -0.02716000
H        0.27467000       2.54692000       1.64171000       0.00265000      -0.19828000      -0.12303000
H       -0.72601000       2.32082000       0.18231000       0.09101000       0.17170000       0.13051000
C       -0.65436000      -0.05227000      -0.90724000      -0.47800000       0.24352000      -1.18267000
C       -1.73692000      -0.02608000      -0.06845000      -0.29087000       0.07156000       1.43423000
H       -2.36913000       0.86120000      -0.02624000      -0.19289000      -0.63797000      -0.48710000
H       -2.06668000      -0.92489000       0.46425000       0.00555000       0.39638000      -0.62079000
C        0.06286000      -1.27032000      -1.15483000       0.37072000      -3.07543000       0.34759000
H       -0.61539000       0.63774000      -1.72737000       0.25646000       0.68741000       0.00517000
O       -0.07769000      -2.25378000      -0.41567000       0.09020000       1.07645000      -0.56317000
C        1.05821000      -1.38682000      -2.32747000       0.01604000       1.50931000       1.26547000
H        1.65845000      -0.46976000      -2.20968000       0.20625000      -0.29954000      -0.27390000
H        0.58620000      -1.28051000      -3.30014000      -0.18200000      -0.37040000      -0.03537000
H        1.71521000      -2.25052000      -2.18811000      -0.47512000       0.12571000      -0.26815000
