118
Lattice="100.0 0.0 0.0 0.0 100.0 0.0 0.0 0.0 100.0" Properties=species:S:1:pos:R:3:forces:R:3 config_type=reactants_in_water energy=-78168.48932348 pbc="T T T"
C        5.68346000       7.18986000       6.64891000      -0.11207000      -0.11101000      -0.12683000
C        4.87191000       6.17740000       7.41838000       0.04156000       0.21808000       0.04748000
C        5.76285000       5.17128000       7.80558000      -1.47630000      -0.36044000      -1.34382000
H        3.99704000       6.44672000       7.99201000       0.08916000      -0.09366000      -0.06907000
C        6.91477000       5.25013000       7.02144000       0.02572000       0.24358000      -0.93388000
H        5.53927000       4.37712000       8.50069000      -0.41158000      -0.01126000      -0.70590000
C        6.78320000       6.30828000       6.13985000       0.38028000      -0.16252000       0.24486000
H        7.70367000       4.51517000       7.00683000      -0.03325000       0.03786000       0.01475000
H        7.53838000       6.63622000       5.44209000      -0.02570000       0.09505000      -0.04401000
H        6.11653000       7.89680000       7.36627000      -0.08921000       0.07084000      -0.10194000
H        5.14232000       7.75235000       5.89481000       0.11557000      -0.14123000       0.11897000
C        5.10394000       5.32733000       4.80340000      -0.09315000      -0.29579000      -0.33958000
C        4.05770000       5.36098000       5.71525000       0.02828000       0.11592000      -0.17093000
H        3.29633000       6.12216000       5.61504000      -0.05441000      -0.05705000      -0.04407000
H        3.72848000       4.41837000       6.12557000       0.05975000       0.00786000      -0.02213000
C        5.82878000       4.07143000       4.59485000      -0.24015000       0.58904000       0.05295000
H        5.23046000       6.11091000       4.06977000       0.00083000       0.05640000       0.01339000
O        5.66512000       3.10913000       5.32338000       0.00950000      -0.34832000       0.13778000
C        6.80456000       4.02397000       3.44137000      -0.02757000       0.27270000      -0.08575000
H        7.47298000       4.88474000       3.46615000       0.03661000      -0.05854000       0.08052000
H        6.25537000       4.06411000       2.49931000       0.12062000       0.11950000       0.28307000
H        7.37889000       3.10320000       3.48301000      -0.01304000       0.10577000       0.00612000
O        9.77562000       7.93860000       2.34070000      -0.58766000      -2.43995000      -0.77511000
H        9.56692000       8.05554000       1.37978000       0.26924000      -0.19185000       1.62628000
H        9.18606000       7.19920000       2.63446000       0.91559000       0.96469000      -0.24698000
O        3.14409000       5.25854000       9.75050000      -0.90704000      -0.43798000      -0.09881000
H        3.41228000       4.39089000       9.35572000      -0.83130000       0.81820000       0.37194000
H        2.15416000       5.23368000       9.75500000       1.47841000      -0.26310000      -0.02883000
O        3.34314000       2.73173000       2.79149000       1.41875000       0.00275000      -0.72186000
H        3.50680000       1.84316000       2.38620000       0.15906000       1.37395000       0.36466000
H        4.14269000       3.26468000       2.55214000      -0.86041000      -1.03968000       0.61349000
O        8.13565000       8.76797000       9.02654000      -2.91626000      -1.14758000      -0.17258000
H        7.27531000       9.15498000       8.72548000       1.26051000      -0.46012000       0.20898000
H        8.28138000       7.99206000       8.42878000      -0.33236000       1.16249000       0.74651000
O        1.47134000       8.18615000       7.70633000       0.76536000      -1.54906000       0.74129000
H        1.30783000       7.46473000       8.36469000       0.27376000       1.09191000      -0.97043000
H        2.45767000       8.26119000       7.66032000      -1.20844000       0.13912000       0.34956000
O        1.43961000       5.38389000       3.21036000      -0.63083000      -0.06695000      -1.44448000
H        1.81822000       4.94819000       2.40573000      -0.58320000       0.58045000       1.33932000
H        0.53119000       5.66628000       2.93536000       1.25175000      -0.47183000       0.41095000
O        4.61933000       9.07440000       2.64247000       1.06807000       0.13455000      -2.77623000
H        4.22539000       9.90080000       2.26500000       0.53694000      -1.42860000       0.44809000
H        5.20097000       8.72493000       1.92126000      -1.04968000       0.40692000       0.84085000
O        9.59549000       1.81773000       3.32179000      -1.88627000      -0.98032000      -0.14801000
H        9.03775000       1.09131000       3.69842000       0.68140000       0.99530000      -0.33671000
H        9.05318000       2.18808000       2.58062000       0.97742000      -0.11002000       1.20322000
O        2.56656000       2.85861000       8.38744000      -0.68060000       0.62002000      -1.72277000
H        2.80400000       2.94868000       7.43030000      -0.12075000      -0.35815000       1.27627000
H        1.63203000       2.53117000       8.38150000       1.49815000       0.15880000       0.26443000
O        2.31429000       8.01558000       1.72729000      -2.01447000       1.06603000       0.51733000
H        1.52599000       8.42458000       1.28923000       0.98894000      -0.55035000       0.71136000
H        2.18405000       8.19708000       2.69201000       0.20211000      -0.04881000      -1.16944000
O        7.46171000       0.05433000       8.58636000      -1.70143000       0.46312000      -0.58874000
H        6.65527000       0.46733000       8.98596000       1.04118000      -0.48012000      -0.76223000
H        7.44553000       0.34394000       7.63954000       0.05521000      -0.28978000       1.32135000
O        1.63221000       0.59298000       9.00892000      -0.20381000      -2.32772000      -0.68335000
H        2.37773000       0.04347000       9.35942000      -1.04071000       1.08480000      -0.31591000
H        1.24352000       0.04753000       8.27953000       0.51353000       0.58192000       1.05208000
O        9.65703000       9.60250000       7.55333000       2.56230000      -0.16584000      -0.97795000
H       10.50273000       9.88432000       7.98458000      -1.08085000      -0.41930000      -0.66083000
H        9.81049000       8.65753000       7.30020000       0.06654000       1.43402000       0.16547000
O        0.95772000       2.24512000       2.10571000       0.61346000      -0.69180000      -1.12723000
H        1.40956000       1.36771000       2.18695000      -0.66976000       1.32576000      -0.08954000
H        1.62686000       2.82919000       1.66788000      -0.86582000      -1.04077000       1.00996000
O       10.75336000       3.58863000       1.88224000      -0.06410000       0.15060000      -1.83236000
H       10.77692000       2.74188000       1.36935000       0.04941000       0.90670000       0.64323000
H       10.73735000       4.29723000       1.19070000       0.11589000      -0.99309000       0.91588000
O        9.42349000       7.31664000      10.72414000      -0.61782000       0.42574000      -0.54897000
H        8.76670000       6.89827000      10.11242000       0.86128000       0.60943000       1.09368000
H        9.24969000       8.28852000      10.64770000       0.02974000      -1.69068000       0.09147000
O        9.34598000       1.76119000       9.02541000      -0.01303000       1.95380000      -0.45024000
H        9.95386000       2.45557000       8.66634000      -0.84626000      -0.79132000       0.58354000
H        8.47609000       2.22273000       9.12956000       1.27061000      -0.69955000      -0.26062000
O        3.48747000       0.54575000       4.69708000       0.75600000       0.26676000      -1.21572000
H        4.23990000       0.18489000       4.16393000      -0.98742000       0.66900000       0.88347000
H        3.40094000       1.48618000       4.39928000       0.23560000      -0.87006000       0.42392000
O        8.25740000       9.32414000       4.34689000      -0.01240000       1.39058000      -0.34307000
H        8.65190000      10.16520000       4.68979000      -0.54646000      -1.25794000      -0.42661000
H        7.95240000       9.54815000       3.43180000       0.58215000      -0.27022000       1.13661000
O        0.91530000       3.63358000       5.54554000       0.57460000      -0.85561000       1.51072000
H        0.68500000       2.73545000       5.89330000       0.34569000       1.18790000      -0.50236000
H        1.59659000       3.97690000       6.17686000      -1.05007000      -0.33790000      -0.94696000
O        7.11859000       5.18498000       9.46300000       0.82389000       0.44828000       3.73154000
H        6.51397000       5.94353000       9.66214000       0.75133000      -0.98523000      -0.04315000
H        6.97389000       4.54991000      10.20888000       0.25723000       0.93107000      -0.58972000
O        4.67041000       9.84700000       4.75658000      -0.12474000      -0.24188000       2.66099000
H        4.11518000       9.02729000       4.77677000       0.80128000       1.19181000      -0.20353000
H        5.09643000       9.88019000       5.64989000      -0.67507000      -0.11727000      -1.14837000
O        0.63239000      10.31295000       6.03172000       0.12415000       0.69106000       1.42726000
H        0.05603000      10.81108000       6.66440000       0.88869000      -0.82259000      -0.74697000
H        1.32322000       9.89286000       6.60345000      -1.24476000       0.31701000      -0.56161000
O        9.02112000       9.98756000       1.61986000       0.33328000       2.39395000      -1.95636000
H        8.86243000      10.09515000       0.64834000       0.09415000       0.23149000       1.25371000
H        9.80534000      10.56209000       1.80830000      -1.04305000      -0.85107000      -0.18606000
O        5.49181000       2.48836000       1.20458000       0.87704000       0.46732000      -1.61214000
H        5.20462000       3.19072000       0.56832000       0.43431000      -1.02034000       0.60982000
H        6.43374000       2.30338000       0.96139000      -1.24621000       0.32150000       0.27051000
O        2.10713000      10.09873000       3.45749000       0.35938000       1.54118000      -1.09679000
H        1.80120000      10.34586000       2.54867000       0.42829000      -0.27407000       1.31217000
H        2.84393000      10.73116000       3.65179000      -0.92543000      -0.92166000       0.06839000
O        3.13853000       9.30092000       9.64534000      -0.40358000      -0.52672000       3.05185000
H        2.59983000       9.96362000      10.14656000       0.60895000      -0.98573000      -0.67172000
H        3.28525000       8.56271000      10.28886000      -0.25459000       0.95034000      -0.64300000
O        9.75622000       0.86721000       0.75880000      -0.84571000      -1.61633000      -0.43689000
H        9.92625000       0.09889000       0.15764000      -0.20897000       1.07345000       0.77446000
H        9.04437000       0.55103000       1.37026000       1.27901000       0.27645000      -0.76212000
O        3.59012000       9.95907000       7.54390000       1.37952000       2.28155000      -1.43836000
H        4.23814000      10.34810000       8.18369000      -1.17386000      -0.67979000      -0.73518000
H        3.50252000      10.64273000       6.83289000       0.16231000      -0.91035000       0.60763000
O        4.33805000       0.90304000       9.81208000       1.23313000      -1.34116000       0.04835000
H        5.05290000       0.74684000      10.47932000      -1.02097000       0.03357000      -0.74806000
H        4.41289000       0.14023000       9.18510000       0.12779000       1.05521000       0.73308000
O        8.37400000      10.88620000      10.97364000      -0.71122000      -0.94348000      -0.78906000
H        7.39839000      10.74951000      10.87316000       1.43661000       0.07723000       0.12609000
H        8.78201000      10.21397000      10.37178000      -0.76959000       0.98401000       0.56503000
O        2.99878000       6.28877000       0.18209000      -0.35746000      -2.23094000      -0.22348000
H        2.02212000       6.23685000       0.33717000       1.52423000       0.20162000       0.04782000
H        3.36834000       5.50605000       0.66311000      -0.60758000       1.20560000      -0.55974000
115
Lattice="100.0 0.0 0.0 0.0 100.0 0.0 0.0 0.0 100.0" Properties=species:S:1:pos:R:3:forces:R:3 config_type=reactants_in_water energy=-76081.87144182 pbc="T T T"
C        5.75354000       7.00911000       6.17130000       1.62671000      -0.09467000      -5.88508000
C        4.42184000       5.35766000       7.20206000      -1.60765000      -0.53228000      -0.81901000
C        5.68673000       4.98905000       7.59801000       0.29629000      -1.43301000       1.70689000
H        3.66369000       5.45775000       7.94173000      -0.46738000      -0.18573000       0.49692000
C        6.81957000       5.17181000       6.88796000       2.03117000      -3.14764000       4.17871000
H        5.72315000       4.53235000       8.55929000       0.36505000      -0.18496000       0.59245000
C        6.73560000       5.73907000       5.64653000      -1.70439000       1.93296000      -1.38117000
H        7.82547000       4.93088000       7.23143000      -0.39796000      -0.67269000       0.32917000
H        7.70485000       5.76927000       5.17270000      -0.23316000       1.17233000      -0.38398000
H        6.14087000       7.03508000       7.22723000      -1.59610000       0.85884000      -0.47381000
H        5.31171000       7.52997000       5.27695000       1.53627000       1.36169000       2.04221000
C        4.95173000       5.72370000       4.72434000      -0.03976000      -5.99132000       2.47982000
C        4.06820000       5.85615000       5.94156000       2.04137000      -0.91380000      -1.23758000
H        3.03619000       6.05657000       5.68107000       0.10228000       0.55339000       1.00333000
H        6.18844000       2.94394000       5.56336000       3.40947000      -4.93276000       3.59745000
C        6.02839000       4.28129000       4.92578000       4.28543000      22.12322000     -10.73825000
H        4.80493000       6.03200000       3.70269000       0.05370000       0.57384000       0.17922000
O        5.48329000       3.32694000       5.18810000     -11.51193000     -13.40943000       5.91561000
C        6.63217000       4.17412000       3.55412000       3.08872000       3.68902000      -1.74820000
H        6.61676000       5.20439000       3.10128000       0.22418000      -0.69087000       0.36210000
H        6.35336000       3.62856000       2.67919000      -1.50200000      -1.16961000       0.24747000
H        7.71273000       4.00342000       3.56280000       0.34631000      -0.37531000       0.36200000
O        3.21763000       7.89331000       4.40835000      -2.36952000       1.51914000       0.92983000
H        2.35953000       7.78738000       4.90426000       1.43599000       0.86433000      -0.38702000
H        3.29458000       6.99186000       4.18009000       0.59024000      -1.39216000      -1.12102000
O        8.66474000       7.99144000       6.19777000       0.56444000       0.32001000      -2.18211000
H        7.94604000       7.97155000       5.53037000       0.30816000      -0.07849000       1.19872000
H        8.35042000       7.84762000       7.06970000      -0.87038000      -0.09210000       1.09076000
O        5.67997000       8.56806000       1.21580000       1.26845000      -1.33859000      -0.34376000
H        5.03141000       7.88193000       1.28546000      -0.25982000      -1.10663000      -0.04183000
H        5.13092000       9.29722000       1.35931000      -1.00711000       2.35119000       0.27073000
O        8.20972000       0.89010000       4.88451000       2.08493000      -0.16352000       0.78510000
H        8.39273000       1.61922000       5.48537000       0.00875000      -0.06715000       0.12231000
H        7.39857000       1.07118000       4.48162000      -1.91856000       0.31003000      -0.92972000
O        3.21342000       2.15164000       9.09722000       0.25534000      -0.24644000      -0.11212000
H        2.65743000       2.89668000       9.30554000      -0.61831000       0.36661000      -0.13681000
H        2.64259000       1.44140000       8.79724000      -0.37911000       0.00453000       0.16438000
O        9.28547000       2.82629000       1.69303000       0.12057000       0.46971000      -0.03392000
H        9.42445000       2.53893000       2.59323000      -0.02831000      -0.43663000       0.45439000
H        9.61361000       3.73947000       1.72963000      -0.11162000      -0.24373000      -0.31107000
O        8.60760000       8.29022000       1.83649000       0.26063000       1.95791000       0.49220000
H        9.02163000       7.46041000       1.89381000       0.46189000      -1.66431000      -0.26091000
H        7.75694000       8.25097000       1.41328000      -0.66026000      -0.26911000      -0.22134000
O        0.93235000       6.54725000       1.47091000       0.09551000       1.35912000       0.37020000
H        1.08258000       6.49995000       0.53465000       0.12873000      -0.38151000      -0.55840000
H        0.58949000       5.71601000       1.75408000      -0.26408000      -0.87696000       0.27599000
O        6.68023000       3.59109000      10.91245000      -1.25960000       0.47516000       0.81919000
H        7.32110000       3.22154000      10.31838000       0.19776000      -0.60014000      -0.63429000
H        5.92471000       2.97499000      10.94070000       0.94266000       0.16340000      -0.25453000
O       10.59337000       4.77921000       8.55113000      -0.23662000       1.54805000       0.78188000
H       10.97960000       4.10708000       8.04034000       0.55719000      -1.70032000      -1.05813000
H       11.21019000       5.50729000       8.40483000      -0.23103000       0.07313000       0.16467000
O        6.55406000       1.23343000       1.70145000      -0.54945000      -0.95653000      -1.00312000
H        7.27569000       1.52557000       1.15748000       0.65696000       0.27322000      -0.35289000
H        6.62518000       1.70367000       2.50618000       0.16772000       0.82679000       1.05603000
O        0.59446000       9.32744000       4.74523000      -0.57317000      -0.74993000       0.18377000
H        1.42054000       9.50283000       4.33616000       1.37695000       0.01316000      -1.08460000
H        0.36048000      10.18954000       5.04734000      -0.70702000       0.77780000       0.59657000
O        5.40473000       9.91100000       4.74610000      -0.43057000       0.18086000      -1.30079000
H        4.85951000       9.80383000       3.93630000       0.68221000       0.14012000       0.57440000
H        4.83380000       9.48352000       5.36919000      -0.37793000      -0.35858000       0.75995000
O        9.33665000       1.70959000       8.92182000      -1.42896000      -0.25844000      -1.93343000
H        8.98098000       0.85716000       9.18173000       0.15760000       0.13806000       0.35667000
H        9.96735000       2.01782000       9.52335000       1.25328000       0.40052000       1.59122000
O        3.21947000       9.38439000      10.74785000      -1.56822000       0.81644000       1.17739000
H        2.98793000      10.32509000      10.70104000      -0.10907000      -0.40947000       0.28138000
H        3.86614000       9.31611000      10.09053000       1.67799000      -0.57760000      -1.55050000
O       11.13083000       9.10997000       3.37821000       0.47468000       2.91145000       1.30053000
H       10.57257000       9.65160000       2.81918000      -0.15537000       0.28899000       0.00506000
H       11.00724000       8.28616000       3.01991000      -0.32376000      -3.12994000      -1.39223000
O       10.79563000       6.14460000       3.01280000      -0.73310000      -0.41398000      -1.02643000
H       10.16735000       6.42884000       3.65991000      -0.68825000       0.29547000       0.81216000
H       11.63076000       6.28466000       3.42346000       1.13545000       0.11706000       0.49184000
O        0.50174000       6.35227000       4.84178000       1.19102000      -0.36340000      -0.01053000
H       -0.41769000       6.39886000       5.00653000      -1.62066000      -0.32293000       0.25770000
H        0.67853000       7.28151000       4.73334000       0.04639000       0.74948000      -0.25009000
O        0.76278000       4.53943000       9.42684000      -0.75429000      -0.44422000      -1.56625000
H        0.92871000       5.00839000      10.21128000       0.63431000       0.93057000       1.69743000
H       -0.08752000       4.91371000       9.14791000       0.37400000      -0.36871000      -0.19028000
O        5.29439000       6.87521000      10.38891000       0.32065000      -0.53652000      -0.29134000
H        5.49521000       5.93993000      10.48875000       0.71694000      -0.36503000      -0.64083000
H        4.74588000       6.94258000      11.14845000      -1.00979000       0.93411000       1.05316000
O        1.70828000       2.63144000       2.17560000      -0.78765000       0.47605000      -0.13060000
H        2.45424000       2.05109000       2.15767000       1.49352000      -0.66596000       0.18277000
H        1.01795000       2.00869000       1.93361000      -0.42335000       0.16157000      -0.10114000
O        3.12313000       4.93123000       0.19027000      -0.11652000      -0.16995000      -0.02887000
H        3.89889000       4.43456000      -0.04280000       0.86969000       0.03605000      -0.50897000
H        2.63854000       4.22224000       0.60833000      -0.86358000      -0.10658000       0.58206000
O        4.45318000       0.94961000       6.73829000       0.30362000       0.76246000      -1.18763000
H        3.90413000       1.60223000       7.19028000      -0.02792000       0.10880000       0.25054000
H        4.74799000       1.46050000       5.94957000      -0.44747000      -0.71852000       0.83943000
O        0.50969000       1.36393000       6.76584000      -0.23985000       0.30555000      -1.17329000
H       -0.21691000       1.83940000       6.31819000       0.05110000      -0.12939000       0.70024000
H        1.06137000       1.33213000       5.96873000       0.39251000      -0.28721000       0.53384000
O        9.06955000       8.67905000       9.58347000       1.11535000       1.21448000      -2.53591000
H        8.51120000       8.46705000      10.28178000      -1.15306000      -1.15684000       1.83580000
H        9.77304000       8.05148000       9.42493000      -0.23973000      -0.33251000       0.52561000
O        2.40837000       9.77639000       1.54067000       1.51167000      -0.08962000       1.14421000
H        2.28945000       8.86379000       1.32078000      -0.29143000      -0.95139000      -0.00555000
H        1.72155000      10.22813000       1.11106000      -1.36391000       0.97541000      -0.90235000
O       -0.02610000       3.24665000       4.68600000      -0.79469000      -1.66127000      -0.74282000
H        0.71354000       3.16806000       4.09021000       0.51626000       0.00204000      -0.57701000
H        0.18225000       3.95675000       5.24301000       0.58003000       1.70097000       1.19597000
O        8.33164000      10.92179000       4.82363000      -0.45973000       0.16783000       1.66422000
H        8.10423000      10.16319000       5.38730000       0.17845000       0.53432000      -0.14698000
H        8.56093000      10.52026000       4.01126000       0.37525000      -0.66105000      -1.33945000
O       10.17192000       0.55773000      -0.39405000      -0.17552000      -0.50448000      -0.86481000
H       10.85891000       1.17189000      -0.61664000       0.46240000       0.46503000      -0.38934000
H       10.06939000       0.69786000       0.53022000      -0.31598000       0.13111000       1.20476000
O        3.93362000       0.59546000       2.17933000      -1.68649000       2.28294000      -1.36811000
H        4.06884000      -0.06129000       2.79354000       0.27266000      -2.29081000       2.20841000
H        4.71803000       0.60769000       1.65723000       1.16491000       0.28376000      -0.73702000
O        5.82830000       1.48950000       9.19176000       2.44220000      -1.49793000       0.15233000
H        5.87578000       0.92332000       8.40628000      -0.35036000       0.41064000       0.29618000
H        5.08339000       2.03260000       9.08780000      -1.78962000       0.84658000      -0.38852000
115
Lattice="100.0 0.0 0.0 0.0 100.0 0.0 0.0 0.0 100.0" Properties=species:S:1:pos:R:3:forces:R:3 config_type=reactants_in_water energy=-76081.87144182 pbc="T T T"
C        5.75354000       7.00911000       6.17130000       1.62671000      -0.09467000      -5.88508000
C        4.42184000       5.35766000       7.20206000      -1.60765000      -0.53228000      -0.81901000
C        5.68673000       4.98905000       7.59801000       0.29629000      -1.43301000       1.70689000
H        3.66369000       5.45775000       7.94173000      -0.46738000      -0.18573000       0.49692000
C        6.81957000       5.17181000       6.88796000       2.03117000      -3.14764000       4.17871000
H        5.72315000       4.53235000       8.55929000       0.36505000      -0.18496000       0.59245000
C        6.73560000       5.73907000       5.64653000      -1.70439000       1.93296000      -1.38117000
H        7.82547000       4.93088000       7.23143000      -0.39796000      -0.67269000       0.32917000
H        7.70485000       5.76927000       5.17270000      -0.23316000       1.17233000      -0.38398000
H        6.14087000       7.03508000       7.22723000      -1.59610000       0.85884000      -0.47381000
H        5.31171000       7.52997000       5.27695000       1.53627000       1.36169000       2.04221000
C        4.95173000       5.72370000       4.72434000      -0.03976000      -5.99132000       2.47982000
C        4.06820000       5.85615000       5.94156000       2.04137000      -0.91380000      -1.23758000
H        3.03619000       6.05657000       5.68107000       0.10228000       0.55339000       1.00333000
H        6.18844000       2.94394000       5.56336000       3.40947000      -4.93276000       3.59745000
C        6.02839000       4.28129000       4.92578000       4.28543000      22.12322000     -10.73825000
H        4.80493000       6.03200000       3.70269000       0.05370000       0.57384000       0.17922000
O        5.48329000       3.32694000       5.18810000     -11.51193000     -13.40943000       5.91561000
C        6.63217000       4.17412000       3.55412000       3.08872000       3.68902000      -1.74820000
H        6.61676000       5.20439000       3.10128000       0.22418000      -0.69087000       0.36210000
H        6.35336000       3.62856000       2.67919000      -1.50200000      -1.16961000       0.24747000
H        7.71273000       4.00342000       3.56280000       0.34631000      -0.37531000       0.36200000
O        3.21763000       7.89331000       4.40835000      -2.36952000       1.51914000       0.92983000
H        2.35953000       7.78738000       4.90426000       1.43599000       0.86433000      -0.38702000
H        3.29458000       6.99186000       4.18009000       0.59024000      -1.39216000      -1.12102000
O        8.66474000       7.99144000       6.19777000       0.56444000       0.32001000      -2.18211000
H        7.94604000       7.97155000       5.53037000       0.30816000      -0.07849000       1.19872000
H        8.35042000       7.84762000       7.06970000      -0.87038000      -0.09210000       1.09076000
O        5.67997000       8.56806000       1.21580000       1.26845000      -1.33859000      -0.34376000
H        5.03141000       7.88193000       1.28546000      -0.25982000      -1.10663000      -0.04183000
H        5.13092000       9.29722000       1.35931000      -1.00711000       2.35119000       0.27073000
O        8.20972000       0.89010000       4.88451000       2.08493000      -0.16352000       0.78510000
H        8.39273000       1.61922000       5.48537000       0.00875000      -0.06715000       0.12231000
H        7.39857000       1.07118000       4.48162000      -1.91856000       0.31003000      -0.92972000
O        3.21342000       2.15164000       9.09722000       0.25534000      -0.24644000      -0.11212000
H        2.65743000       2.89668000       9.30554000      -0.61831000       0.36661000      -0.13681000
H        2.64259000       1.44140000       8.79724000      -0.37911000       0.00453000       0.16438000
O        9.28547000       2.82629000       1.69303000       0.12057000       0.46971000      -0.03392000
H        9.42445000       2.53893000       2.59323000      -0.02831000      -0.43663000       0.45439000
H        9.61361000       3.73947000       1.72963000      -0.11162000      -0.24373000      -0.31107000
O        8.60760000       8.29022000       1.83649000       0.26063000       1.95791000       0.49220000
H        9.02163000       7.46041000       1.89381000       0.46189000      -1.66431000      -0.26091000
H        7.75694000       8.25097000       1.41328000      -0.66026000      -0.26911000      -0.22134000
O        0.93235000       6.54725000       1.47091000       0.09551000       1.35912000       0.37020000
H        1.08258000       6.49995000       0.53465000       0.12873000      -0.38151000      -0.55840000
H        0.58949000       5.71601000       1.75408000      -0.26408000      -0.87696000       0.27599000
O        6.68023000       3.59109000      10.91245000      -1.25960000       0.47516000       0.81919000
H        7.32110000       3.22154000      10.31838000       0.19776000      -0.60014000      -0.63429000