22
Lattice="100.0 0.0 0.0 0.0 100.0 0.0 0.0 0.0 100.0" Properties=species:S:1:pos:R:3:forces:R:3 config_type=vacuum energy=-11580.50706075 pbc="T T T"
C       -0.12027000       1.81047000       0.91412000       1.04000000       0.28650000      -0.24532000
C       -0.89206000       0.76843000       1.69938000      -1.29258000       2.59919000      -1.28884000
C       -0.02689000      -0.18187000       2.04033000       2.77046000      -2.06455000       0.69222000
H       -1.76680000       1.04541000       2.24610000      -0.39222000      -0.06481000       0.25136000
C        1.17559000      -0.06895000       1.27180000      -0.39232000      -2.63767000       1.55436000
H       -0.21927000      -0.99354000       2.71602000      -0.08031000      -0.14998000       0.14579000
C        1.02684000       0.90932000       0.39121000      -1.05061000       3.12887000      -1.03963000
H        1.94542000      -0.83676000       1.21403000      -0.20247000       0.24832000       0.27051000
H        1.75495000       1.27547000      -0.31275000       0.08249000      -0.05243000      -0.09193000
H        0.34274000       2.52730000       1.63299000      -0.23242000      -0.37501000      -0.38800000
H       -0.66613000       2.39513000       0.15352000       0.23679000      -0.42174000       0.43081000
C       -0.62685000      -0.08153000      -0.93939000      -1.77383000       2.28288000       0.33518000
C       -1.68513000       0.02915000      -0.02272000       0.45044000      -3.88874000       0.32414000
H       -2.47933000       0.70491000      -0.13198000      -0.58804000       1.16329000      -0.21485000
H       -2.04879000      -0.97349000       0.41156000       0.63264000       1.66602000      -0.71932000
C        0.05863000      -1.31659000      -1.15100000       0.82171000       1.64956000      -1.60612000
H       -0.53228000       0.73837000      -1.65008000       0.29232000      -0.35687000      -0.02408000
O       -0.08664000      -2.24385000      -0.43952000      -0.64282000      -3.05464000       2.48475000
C        1.01129000      -1.38389000      -2.28811000       1.20377000       1.75377000       0.08405000
H        1.72938000      -0.53146000      -2.27691000      -0.63747000      -0.32875000       0.03059000
H        0.49561000      -1.34496000      -3.20862000      -0.73165000       0.15447000      -1.11505000
H        1.60999000      -2.24709000      -2.27000000       0.52528000      -1.30658000       0.22575000
22
Lattice="100.0 0.0 0.0 0.0 100.0 0.0 0.0 0.0 100.0" Properties=species:S:1:pos:R:3:forces:R:3 config_type=vacuum energy=-11580.65292032 pbc="T T T"
C       -0.12122000       1.80949000       0.92667000      -0.77842000      -0.05935000       0.20285000
C       -0.90615000       0.73556000       1.72702000       1.16711000       0.43448000       0.29947000
C        0.02709000      -0.25343000       2.06569000       0.41484000       0.66362000      -0.38462000
H       -1.72308000       0.99826000       2.38981000      -0.10405000      -0.03756000      -0.30956000
C        1.15098000      -0.08146000       1.23455000       0.34591000      -0.08460000       0.41085000
H       -0.07981000      -1.05681000       2.78651000      -0.16898000       0.18595000      -0.21472000
C        0.97886000       0.98390000       0.37161000       0.03378000      -1.12604000       0.49751000
H        2.03038000      -0.70490000       1.22403000      -0.16394000      -0.31117000      -0.07892000
H        1.69857000       1.15966000      -0.40486000       0.04196000       0.75828000      -0.02716000
H        0.27467000       2.54692000       1.64171000       0.00265000      -0.19828000      -0.12303000
H       -0.72601000       2.32082000       0.18231000       0.09101000       0.17170000       0.13051000
C       -0.65436000      -0.05227000      -0.90724000      -0.47800000       0.24352000      -1.18267000
C       -1.73692000      -0.02608000      -0.06845000      -0.29087000       0.07156000       1.43423000
H       -2.36913000       0.86120000      -0.02624000      -0.19289000      -0.63797000      -0.48710000
H       -2.06668000      -0.92489000       0.46425000       0.00555000       0.39638000      -0.62079000
C        0.06286000      -1.27032000      -1.15483000       0.37072000      -3.07543000       0.34759000
H       -0.61539000       0.63774000      -1.72737000       0.25646000       0.68741000       0.00517000
O       -0.07769000      -2.25378000      -0.41567000       0.09020000       1.07645000      -0.56317000
C        1.05821000      -1.38682000      -2.32747000       0.01604000       1.50931000       1.26547000
H        1.65845000      -0.46976000      -2.20968000       0.20625000      -0.29954000      -0.27390000
H        0.58620000      -1.28051000      -3.30014000      -0.18200000      -0.37040000      -0.03537000
H        1.71521000      -2.25052000      -2.18811000      -0.47512000       0.12571000      -0.26815000
124
Lattice="100.0 0.0 0.0 0.0 100.0 0.0 0.0 0.0 100.0" Properties=species:S:1:pos:R:3:forces:R:3 config_type=reactants_in_water energy=-82337.12237592 pbc="T T T"
C        5.64629000       7.23775000       6.65136000       0.74193000       0.20319000       0.08621000
C        4.80922000       6.24456000       7.39897000      -0.90046000       0.75220000       0.47963000
C        5.63443000       5.21005000       7.80900000       0.37985000       0.67649000      -0.42233000
H        3.86224000       6.59050000       7.87352000       1.12516000      -0.95359000      -0.64649000
C        6.86762000       5.33025000       7.11069000       0.15022000       0.27894000       0.06765000
H        5.32288000       4.36785000       8.38780000       0.08836000      -0.39766000       0.26802000
C        6.84641000       6.43204000       6.26198000      -1.05029000      -1.04314000       0.83600000
H        7.67542000       4.62202000       7.24232000      -0.09045000      -0.10341000      -0.25362000
H        7.59321000       6.75358000       5.55421000      -0.05881000       0.02179000       0.26027000
H        5.97656000       7.99856000       7.36942000      -0.05048000       0.01423000      -0.18487000
H        5.17854000       7.71341000       5.80956000      -0.11895000       0.43285000       0.06665000
C        4.97258000       5.38400000       4.87023000       0.52358000      -0.44822000      -0.99755000
C        3.90254000       5.51048000       5.73024000      -0.30596000      -0.64586000      -0.48751000
H        3.16255000       6.33006000       5.53328000       0.84430000      -0.89733000       0.54477000
H        3.52417000       4.57871000       6.18642000       0.01333000       0.81088000      -0.21823000
C        5.76162000       4.12742000       4.71137000       0.09714000       1.49010000      -0.04383000
H        5.16864000       6.14115000       4.07789000      -0.22581000      -0.72347000       0.85953000
O        5.77449000       3.16558000       5.46964000      -0.10157000       0.56489000      -0.41630000
C        6.62846000       4.17763000       3.45301000       0.15995000      -0.24541000       0.13138000
H        7.51224000       4.83743000       3.47850000      -0.42714000      -0.23714000       0.60198000
H        6.03763000       4.53911000       2.61016000      -0.22524000      -0.19585000       0.16033000
H        7.00237000       3.17419000       3.24916000      -0.11395000       0.05942000      -0.13493000
O        3.17887000       5.39372000       2.72048000       0.16030000       0.93763000      -0.94287000
H        2.65727000       5.88511000       3.32977000      -0.54449000       0.70708000       0.53200000
H        3.49661000       4.66417000       3.22867000       0.03417000      -0.85836000       0.10036000
O        1.22004000       7.97123000       7.20626000       0.04372000       0.13715000       0.39603000
H        1.64663000       8.15338000       6.37919000       0.47493000       0.12626000      -0.61101000
H        0.31893000       7.78699000       6.94619000      -0.37994000      -0.17023000       0.14996000
O        7.85688000       4.07097000       0.90706000      -0.13205000      -0.50341000      -1.59698000
H        8.41741000       3.50431000       1.42136000       0.57804000      -0.59310000       0.62695000
H        7.62733000       4.76323000       1.49791000      -0.36303000       0.86391000       0.84093000
O        6.78301000       1.33466000       7.83954000       1.55796000       0.42099000      -0.34921000
H        6.68787000       1.47554000       6.87959000       0.12339000       0.01330000       0.56318000
H        7.70959000       1.61686000       8.07311000      -1.40633000      -0.69600000      -0.24316000
O        2.68121000       8.27972000       2.18564000      -0.16023000      -0.88075000       0.56243000
H        3.17011000       8.89553000       1.68054000       1.20777000       0.68267000      -1.06052000
H        1.97779000       8.83600000       2.46833000      -1.16790000       0.56998000       0.67494000
O        6.34844000       5.54488000      11.03670000       1.09651000      -0.38750000       1.28023000
H        6.32028000       6.48735000      11.10693000       0.13286000       0.87427000       0.06965000
H        5.71042000       5.33055000      10.39878000      -1.28895000      -0.53562000      -1.43630000
O        3.27786000       3.23482000       1.62835000       0.43846000      -1.80536000       1.74105000
H        3.53673000       3.44570000       0.75857000       0.31722000       0.32940000      -1.57537000
H        3.35808000       2.26267000       1.70267000      -0.67947000       0.85723000      -0.50888000
O        4.57987000       0.99777000       4.26338000       2.51258000      -0.18119000      -0.95095000
H        5.48687000       1.02846000       3.81433000      -1.72364000       0.39037000       0.73967000
H        4.68633000       0.17157000       4.71834000      -0.26221000      -0.76243000       0.68748000
O        9.78197000       3.12329000       3.42519000      -1.77697000      -0.72076000      -0.16803000
H        9.70333000       3.69095000       4.17481000      -0.02609000       0.86134000       0.61476000
H       10.67152000       3.15124000       3.15286000       1.59601000       0.18748000      -0.76198000
O        1.81307000       4.22248000       8.41624000      -0.65190000      -0.74215000      -0.04204000
H        1.35488000       3.40332000       8.72115000       0.45047000       0.97750000      -0.15035000
H        2.70450000       4.09687000       8.74856000       0.23184000      -0.14178000      -0.03002000
O        2.21545000       1.43532000       5.15917000      -0.39940000      -0.06272000       0.27791000
H        2.54792000       2.06473000       5.80938000       0.21458000      -0.20051000      -0.14349000
H        2.97980000       1.11683000       4.64868000      -0.27034000       0.62693000       0.34753000
O       10.60841000       4.04309000       0.56519000       0.44808000      -1.03065000       0.28047000
H        9.74032000       4.31244000       0.30885000      -1.04950000       0.23174000      -0.27779000
H       11.12633000       4.82549000       0.51656000       0.76964000       0.90922000      -0.01763000
O        0.74352000       2.21736000       3.02759000       0.04069000       0.07969000       0.69795000
H        1.23875000       2.20748000       3.88723000      -0.60947000      -0.20588000      -0.84385000
H        1.07825000       1.43974000       2.58179000       0.16355000      -0.04129000       0.04732000
O        9.39968000       8.77824000       5.98234000      -0.43649000       0.87532000       0.71253000
H        9.16919000       7.86310000       5.92599000       0.02216000      -0.85491000      -0.04779000
H        9.99959000       8.89842000       5.26504000       0.67369000       0.08312000      -0.71276000
O       -0.03784000       6.67436000       1.18810000       0.35199000       0.57891000       1.37900000
H        0.54795000       7.16074000       1.81680000      -0.58075000      -0.89426000      -0.85549000
H        0.25124000       6.98513000       0.33925000       0.25280000       0.13770000      -0.62400000
O        5.61078000       0.85705000       1.89305000      -0.33941000       0.28420000       0.05910000
H        5.87148000       1.61644000       1.38232000       0.70626000       0.37892000      -0.64095000
H        4.80437000       1.22109000       2.28967000       0.00891000      -0.62697000      -0.12125000
O        9.58989000       7.49754000      10.13948000       0.47180000       1.34118000      -0.27590000
H       10.07521000       8.17086000      10.66475000      -0.45060000      -0.82823000      -0.32857000
H        9.41521000       7.98971000       9.31041000       0.03785000      -0.49179000       0.53257000
O        4.58446000       2.11182000       8.93628000      -0.05306000       0.88366000       0.54646000
H        5.50146000       1.82845000       8.74388000       0.11147000       0.14980000      -0.30053000
H        4.10173000       1.30255000       8.91779000      -0.66117000      -0.77597000      -0.01078000
O        3.50709000       8.37250000       9.37395000       0.21184000       0.91993000      -1.89358000
H        3.53789000       8.88276000       8.50720000      -0.05800000      -0.70010000       1.73456000
H        3.25249000       7.51275000       9.01775000      -0.34470000       0.11058000       0.66461000
O        7.41093000       6.84329000       1.07769000       0.91625000      -1.00867000      -1.20102000
H        6.64482000       7.30763000       0.77222000      -0.70698000       0.32966000      -0.30228000
H        7.73058000       6.29515000       0.31325000      -0.48823000       0.79372000       0.94325000
O        9.01845000       1.18950000       9.82094000       1.03405000       1.42232000      -1.33365000
H        9.03571000       1.94141000      10.44089000      -0.17164000      -0.18846000      -0.13196000
H        9.49883000       1.60214000       9.04429000      -0.63147000      -0.77922000       1.15561000
O        8.80131000       4.09027000      10.81178000      -0.14487000      -1.26294000       0.33048000
H        9.09960000       4.83348000      10.32132000       0.65587000       1.02986000      -0.61668000
H        7.90516000       4.34745000      11.02950000      -0.49181000       0.14642000       0.21202000
O        8.34530000       1.28843000       5.28901000      -0.58667000       1.02559000       0.02633000
H        8.34451000       0.64142000       4.58917000       0.17517000      -0.24249000      -0.37124000
H        7.89601000       2.06717000       4.90237000       0.08880000      -0.63990000       0.18905000
O        1.55477000       2.76011000      10.73126000       1.83665000      -0.02740000       0.23544000
H        2.53172000       2.80452000      10.90918000      -1.20434000      -0.00653000      -0.55686000
H        1.26253000       2.23162000      11.46513000      -0.54604000      -0.38202000       0.38364000
O        0.80199000       6.69655000      10.32335000      -0.27498000       1.18201000       0.43451000
H        0.85376000       6.00744000       9.68256000       0.22805000      -1.00356000      -0.87315000
H        1.34180000       6.42107000      11.05597000       0.24768000      -0.27143000       0.33805000
O        9.12247000       6.80635000       3.07813000       3.24972000       0.00485000      -0.22807000
H        8.40044000       6.75510000       3.62903000      -2.33826000      -0.28806000       2.17766000
H        8.73412000       7.01656000       2.25819000      -0.60680000       0.42967000      -1.69388000
O        6.71511000       9.62342000       4.47016000       1.75232000      -0.70544000      -0.40668000
H        5.92007000       9.96256000       4.07419000      -0.15416000       0.15252000      -0.53870000
H        7.42408000       9.42208000       3.80219000      -1.49725000       0.52586000       0.86894000
O        2.01195000       0.97003000       0.46144000      -1.29322000      -0.52288000      -0.32011000
H        2.04545000       0.69355000      -0.46748000       0.21563000       0.06750000       0.37286000
H        1.05206000       0.88151000       0.66630000       1.03005000       0.34084000      -0.14370000
O        5.01843000      10.11078000       6.67917000      -0.91286000      -0.37799000      -0.39440000
H        4.10175000      10.33827000       6.84012000      -0.28115000       0.22183000      -0.03670000
H        5.47294000      10.59476000       7.34930000       0.74517000       0.62462000       0.62767000
O        4.26995000      11.09712000      10.13464000      -1.57621000       1.08840000       0.22472000
H        3.33787000      10.80025000      10.25537000       0.69794000       0.47161000      -0.09502000
H        4.68504000      10.31690000       9.83766000       0.86500000      -1.47734000      -0.23616000
O       10.03527000       9.58584000       1.00084000       0.65413000      -0.01619000       0.79905000
H        9.09194000       9.57351000       0.90754000      -0.72877000      -0.01943000      -0.17444000
H       10.16727000       9.58370000       1.96575000       0.03902000      -0.06876000      -0.59804000
O        9.96243000       5.95197000       5.75941000       0.72757000      -0.40867000      -0.55713000
H       10.89107000       5.66113000       5.71876000      -0.54644000       0.35006000      -0.14920000
H        9.72209000       5.79221000       6.66349000      -0.30997000      -0.27334000       0.82035000
O        9.98430000       2.76266000       7.06803000      -2.26969000       0.43679000      -0.57043000
H        9.57805000       2.70838000       6.16851000       0.62777000      -0.48897000       1.14721000
H       10.90799000       2.77917000       6.95908000       1.70584000      -0.10037000      -0.28792000
O        1.06166000      10.18904000      10.23854000      -0.34918000      -0.55683000      -0.47824000
H        0.24260000      10.18940000       9.71334000       0.51752000       0.18462000       0.28978000
H        1.28240000       9.24052000      10.26353000       0.08881000       0.26538000      -0.03611000
118
Lattice="100.0 0.0 0.0 0.0 100.0 0.0 0.0 0.0 100.0" Properties=species:S:1:pos:R:3:forces:R:3 config_type=reactants_in_water energy=-78174.63510948 pbc="T T T"
C        5.70259000       7.22990000       6.46587000       0.31866000      -0.69267000       1.94463000
C        4.88609000       6.27671000       7.30841000      -0.83407000      -0.46489000       0.23686000
C        5.58018000       5.09004000       7.53160000       0.56724000       1.83721000       1.61258000
H        4.00708000       6.60837000       7.85176000       0.05243000      -0.32425000      -0.22704000
C        6.86161000       5.22409000       6.98738000      -0.16490000       1.00705000      -2.28340000
H        5.24316000       4.23923000       8.08891000      -0.15872000       0.01926000       0.35257000
C        6.78952000       6.31036000       6.06731000       1.88790000      -1.24006000       0.95807000
H        7.64675000       4.47918000       7.06964000      -0.21421000       0.19261000      -0.28623000
H        7.60046000       6.57576000       5.38266000      -0.38610000       0.04141000       0.36106000
H        6.05707000       8.03385000       7.17465000      -0.09433000      -0.68953000      -0.88732000
H        5.14825000       7.63697000       5.66289000      -0.46463000       0.55832000      -0.64494000
C        5.03935000       5.26732000       4.73104000       0.08171000      -3.00197000       0.59760000
C        3.97920000       5.22536000       5.61189000       1.53866000      -0.04684000      -0.97311000
H        3.25450000       5.97327000       5.59296000      -1.24673000       1.05493000      -0.19139000
H        3.72380000       4.33774000       6.15059000       0.10360000      -0.41659000       0.00259000
C        5.92480000       4.04551000       4.61437000      -1.26453000       1.24403000       0.20956000
H        5.17451000       5.96129000       3.95820000      -0.12333000       1.10074000      -0.68496000
O        5.83526000       3.08799000       5.37475000      -0.18853000      -0.03246000      -0.32469000
C        6.86273000       4.11038000       3.45618000       0.69957000      -0.61043000      -0.53744000
H        7.50910000       4.98600000       3.53947000       0.03889000      -0.13405000       0.03166000
H        6.26180000       4.25043000       2.55418000       0.11135000      -0.07546000       0.09792000
H        7.46950000       3.18559000       3.35069000      -0.47372000       0.75554000       0.12979000
O        9.97067000       7.54466000       2.41288000      -0.33842000      -0.45962000       1.52254000
H        9.46814000       8.08147000       1.80555000      -0.64440000      -0.01832000      -0.11903000
H        9.40521000       7.44897000       3.23076000       0.78305000       0.23172000      -1.51710000
O        3.06206000       5.24802000       9.69607000       0.53156000       0.93640000       0.80197000
H        2.97880000       4.44484000       9.19645000      -0.00958000      -0.73855000      -0.95185000
H        2.22063000       5.32084000      10.12941000      -0.51298000       0.21097000       0.32873000
O        3.45802000       2.83337000       2.71170000      -1.32848000      -0.48771000      -0.67434000
H        3.93180000       2.17883000       2.19758000       0.26106000      -0.08921000       0.00863000
H        4.03626000       3.00855000       3.42573000       0.93952000       0.61197000       1.12337000
O        7.76853000       8.55797000       9.01999000       0.04351000      -1.41289000       1.76006000
H        7.72427000       9.25406000       8.40816000       0.18044000       1.13393000      -1.69424000
H        8.65440000       8.14959000       9.02821000      -0.52702000       0.25837000      -0.28117000
O        1.49814000       8.03077000       7.70516000       0.46287000       0.61459000       0.07542000
H        0.65621000       7.74977000       8.06102000       0.09408000      -0.12714000       0.57804000
H        2.03406000       8.54273000       8.36463000      -0.64921000      -0.96451000      -0.88604000
O        1.53412000       5.49801000       3.26529000       0.03800000      -1.09402000       1.08891000
H        1.74527000       4.74656000       3.88269000      -0.29589000       1.02346000      -1.03930000
H        0.60030000       5.31974000       3.09700000       0.15841000       0.04840000      -0.06390000
O        4.64467000       9.09274000       2.41948000       0.60533000       1.69728000       1.51908000
H        3.93631000       9.68898000       2.75098000       0.38120000      -0.27978000      -0.55625000
H        4.19545000       8.46761000       1.89316000      -0.50941000      -0.90155000      -1.17624000
O        9.67247000       1.82617000       3.54939000       0.38214000      -0.25215000       0.18069000
H        8.88127000       1.30898000       3.51485000      -0.77050000      -0.14087000       0.16452000
H        9.52710000       2.66007000       3.08170000       0.10370000      -0.05451000       0.04571000
O        2.64668000       3.01333000       8.14806000       0.88207000       0.20133000       0.31962000
H        3.54221000       2.75539000       7.85695000      -0.71848000      -0.01250000       0.11712000
H        2.50529000       2.52167000       8.97845000       0.01300000      -0.14338000      -0.92009000
O        2.27486000       8.07861000       1.84435000      -0.54396000       0.28119000       0.39710000
H        1.35123000       8.18305000       2.10715000       0.16254000      -0.20647000      -0.18014000
H        2.71539000       8.28071000       2.68563000      -0.47460000      -0.30475000      -0.28349000
O        7.50656000      -0.07965000       8.63574000       0.21226000      -1.46561000      -0.80286000
H        7.37352000       0.85118000       8.58815000       0.04731000       1.06277000      -0.31608000
H        8.02327000      -0.28370000       7.82328000      -0.45371000       0.31561000       1.01563000
O        1.45577000       0.68870000       8.89933000      -0.36753000      -1.49705000      -0.43946000
H        2.10247000       0.60228000       9.59673000       0.47591000       0.05779000       0.42426000
H        1.51497000      -0.21156000       8.50235000      -0.27599000       1.12478000       0.08037000
O        9.93988000       9.66213000       7.39069000       1.37877000      -0.00233000      -1.06055000
H        9.82102000       9.67978000       8.33611000       0.34459000       0.19914000       0.50442000
H       10.91546000       9.72269000       7.21046000      -1.53570000      -0.08561000       0.55650000
O        0.73756000       2.03772000       2.15034000       0.81666000      -0.46826000      -0.46736000
H        1.12105000       1.14560000       2.24517000      -0.45750000       0.51961000       0.09065000
H        1.53526000       2.54874000       1.91443000      -0.58356000       0.07477000       0.44556000
O       10.68842000       3.48158000       1.91134000       0.26378000       1.81229000      -1.17090000
H       10.66171000       2.67566000       1.39438000       0.03016000      -0.43618000      -0.31301000
H       10.76478000       4.21991000       1.24482000      -0.18622000      -1.21937000       1.17853000
O        9.58299000       7.32880000      10.81983000      -0.08046000      -0.21562000      -0.08467000
H        8.82323000       6.76369000      10.62356000       0.08301000       0.10818000      -0.11418000
H        9.26632000       7.99400000      11.43215000      -0.11657000       0.20381000       0.08985000
O        9.39828000       1.82097000       8.99071000      -0.65166000      -0.54514000       0.15277000
H        9.91367000       2.56748000       9.23326000       0.94213000       1.07757000       0.04204000
H        8.69673000       1.84591000       9.64893000       0.10932000      -0.25015000       0.02911000
O        3.42215000       0.41646000       4.72733000      -0.37356000       0.63533000      -0.11682000
H        4.37824000       0.41607000       4.75262000       0.28082000       0.09054000       0.04146000
H        3.18740000       1.33697000       4.50047000       0.00906000      -0.63515000       0.05426000
O        8.26857000       9.23329000       4.42832000       0.91690000      -0.36769000       0.20443000
H        9.09233000       9.09979000       4.96034000      -1.01850000       0.39201000      -0.88650000
H        8.48998000       9.36403000       3.48244000       0.12001000       0.08455000       0.85279000
O        0.88491000       3.83754000       5.53648000      -1.40094000      -0.86218000       0.30487000
H        0.52330000       3.17480000       6.15776000       0.34308000       0.42534000      -0.59806000
H        1.69783000       4.08437000       5.93748000       1.01851000       0.37675000       0.72099000
O        7.33432000       5.41903000       9.89397000       1.22783000      -0.59755000      -1.28534000
H        6.57416000       5.96024000       9.80858000      -1.23606000       0.85737000      -0.25639000
H        7.51874000       5.32385000      10.80016000       0.05286000      -0.33183000       1.86324000
O        4.48386000      10.09447000       5.13829000       0.56561000       1.30882000      -2.60244000
H        4.80940000       9.60844000       4.37151000       0.14896000       0.00952000       0.09087000
H        4.40737000       9.50392000       5.84454000       0.20757000      -1.58465000       1.47653000
O        0.74299000      10.31958000       6.09311000      -0.24236000      -0.58062000      -0.15303000
H        0.30821000      10.88659000       6.71978000      -0.22666000       0.37941000       0.27949000
H        0.59537000       9.41606000       6.44099000       0.65034000       0.48407000      -0.22463000
O        8.94076000      10.07632000       1.43468000      -0.06332000       0.67668000       0.16123000
H        8.81375000      11.04594000       1.49247000       0.12701000      -0.91806000      -0.09276000
H        9.88704000       9.91792000       1.47923000       0.21505000       0.30983000      -0.01830000
O        5.46425000       2.48371000       1.13405000      -1.27018000       0.44325000       1.22407000
H        4.85890000       2.66996000       0.43454000      -0.82775000       0.47185000      -0.69565000
H        6.19881000       2.15361000       0.69985000       2.47296000      -1.08179000      -1.20066000
O        2.04325000      10.16584000       3.44838000       0.10447000       0.17222000      -0.58567000
H        1.61372000      10.85010000       2.93903000      -0.15419000       0.06591000      -0.45733000
H        1.97097000      10.49396000       4.33569000      -0.01629000      -0.03213000       1.14484000
O        3.12354000       9.22626000       9.89773000      -0.93890000      -0.39643000       1.29774000
H        2.26582000       9.67244000       9.84395000       0.25334000       0.30199000      -0.06649000
H        3.00525000       8.74603000      10.75294000       0.57173000       0.27846000      -1.01858000
O        9.72643000       0.96718000       0.55607000       0.35631000       0.47530000      -1.06495000
H        9.77875000       0.32338000      -0.15956000      -0.08338000       0.05556000       0.28774000
H        9.28744000       0.56268000       1.28466000      -0.26501000      -0.56999000       0.82843000
O        3.60388000      10.13583000       7.29149000      -0.60884000      -0.20124000      -0.54443000
H        3.61195000      10.61749000       8.09462000       0.13233000       0.73713000       0.98110000
H        3.48322000      10.74192000       6.52863000      -0.04149000      -0.29486000       0.99618000
O        4.29045000       0.87473000       9.72093000      -2.14365000       0.62317000      -0.97653000
H        4.82450000       0.75587000      10.46203000       1.44250000      -0.35974000       1.83874000