22
Lattice="100.0 0.0 0.0 0.0 100.0 0.0 0.0 0.0 100.0" Properties=species:S:1:pos:R:3:forces:R:3 config_type=vacuum energy=-11581.17237259 pbc="T T T"
C        0.12977000       1.99169000       1.84767000      -0.49662000       1.64920000       1.23649000
C       -0.18636000       0.72480000       2.60027000       1.49678000      -0.44773000      -0.87987000
C        0.92734000      -0.04526000       2.47321000      -0.56838000      -0.97938000       1.26100000
H       -1.13225000       0.46945000       3.05633000       0.15494000       0.03542000      -0.04125000
C        1.97595000       0.66222000       1.77395000       1.05348000      -0.50149000       0.42768000
H        1.15177000      -1.02984000       2.93331000      -0.60060000       0.69974000      -0.43282000
C        1.57071000       1.87400000       1.45137000      -0.79559000       0.92085000      -1.16401000
H        2.98498000       0.29059000       1.67208000      -0.01371000      -0.15250000      -0.11386000
H        2.14273000       2.67147000       0.96986000      -0.31308000      -0.39693000       0.19430000
H        0.07150000       2.91620000       2.50012000      -0.31392000      -0.93274000      -0.40280000
H       -0.60186000       2.16600000       1.05348000       0.27752000       0.05084000      -0.18627000
C       -1.49598000      -0.68416000      -2.27551000       1.69705000       0.50562000       0.63608000
C       -2.64965000      -1.25127000      -2.49713000       1.10965000      -1.77452000       0.56549000
H       -3.46986000      -0.85408000      -2.94860000      -1.96012000       1.33932000      -1.32287000
H       -2.70085000      -2.29415000      -2.20588000      -0.32000000       0.05762000       0.21429000
C       -0.48100000      -1.46020000      -1.49457000       0.20359000      -0.73170000       0.06823000
H       -1.14532000       0.30030000      -2.53510000      -0.48545000       0.35963000      -0.33376000
O       -0.83241000      -2.38923000      -0.80594000      -0.09957000      -0.26856000       0.15322000
C        1.00059000      -1.13400000      -1.56787000      -1.08280000      -0.73380000      -0.59771000
H        1.11978000      -0.21792000      -2.11468000       0.60867000       0.38904000      -0.10233000
H        1.48233000      -1.99014000      -2.08185000      -0.17405000       0.63793000       0.25181000
H        1.33779000      -1.10145000      -0.55000000       0.43756000       0.28695000       0.32896000
22
Lattice="100.0 0.0 0.0 0.0 100.0 0.0 0.0 0.0 100.0" Properties=species:S:1:pos:R:3:forces:R:3 config_type=vacuum energy=-11580.99617362 pbc="T T T"
C       -0.55624000       2.28077000       0.89474000      -1.85742000       0.27917000      -1.86605000
C       -1.29960000       1.02726000       1.24542000      -0.95791000       0.71044000      -0.06246000
C       -0.43040000       0.09900000       1.54288000       1.44754000      -0.42225000       0.52145000
H       -2.35890000       0.84908000       1.15142000      -0.12700000       0.33902000       0.17255000
C        0.91555000       0.63636000       1.35505000       0.77427000      -1.24573000       1.26438000
H       -0.61612000      -0.86365000       1.92447000      -0.33265000      -1.09448000       0.01063000
C        0.85524000       1.89031000       0.94584000       0.30449000       0.17215000       0.52990000
H        1.82195000       0.09241000       1.64503000      -0.42884000       0.27004000      -0.35200000
H        1.71502000       2.49544000       0.80802000       0.33476000       0.66366000      -0.22348000
H       -0.87508000       3.10739000       1.52707000       0.23718000       0.18879000      -0.05889000
H       -0.90341000       2.49036000      -0.15149000       0.42132000       0.43462000       0.60810000
C       -0.86038000      -1.17563000      -1.34671000      -0.24130000       1.93818000      -1.58349000
C       -1.93483000      -1.70774000      -0.79472000       0.10116000       0.31959000      -0.13515000
H       -2.93697000      -1.35657000      -1.06968000       0.47182000      -0.32049000       0.31104000
H       -1.72130000      -2.38996000       0.00513000      -0.55387000      -0.62349000       0.12023000
C        0.52363000      -1.56613000      -0.96485000      -0.83970000       1.05656000       0.21104000
H       -1.00391000      -0.27696000      -2.00894000       0.41774000      -1.18373000       0.42082000
O        0.69617000      -2.56463000      -0.33214000       0.21660000      -1.57052000       0.69097000
C        1.69406000      -0.67713000      -1.20237000       1.70297000       0.13961000      -0.67330000
H        1.53996000       0.33548000      -1.59965000      -0.39599000      -0.21143000       0.67398000
H        2.28811000      -1.13807000      -2.02719000      -0.16163000      -0.07305000       0.74518000
H        2.29044000      -0.70290000      -0.24164000      -0.53787000       0.24256000      -1.55594000
22
Lattice="100.0 0.0 0.0 0.0 100.0 0.0 0.0 0.0 100.0" Properties=species:S:1:pos:R:3:forces:R:3 config_type=vacuum energy=-11581.22517081 pbc="T T T"
C        0.34671000       2.16818000       1.58192000      -0.39394000      -0.80570000      -1.19391000
C       -0.77991000       1.21949000       2.04681000       2.54574000      -1.21594000       0.03534000
C       -0.25653000      -0.04826000       2.08282000       0.37905000       1.97794000      -1.51458000
H       -1.78612000       1.53516000       2.23456000      -0.17173000       0.08944000       0.32945000
C        1.12795000      -0.03304000       1.44920000      -1.60963000       0.05216000       0.81306000
H       -0.78842000      -0.96477000       2.24154000      -0.14222000      -0.18953000       0.35697000
C        1.45150000       1.21102000       1.06956000      -1.48307000       0.05283000       1.31604000
H        1.65022000      -0.96837000       1.35017000       0.36628000       0.06641000      -0.18526000
H        2.34222000       1.55595000       0.60321000       0.53504000       0.13970000      -0.24338000
H        0.77739000       2.79127000       2.38002000      -0.31113000      -0.04844000      -0.18113000
H       -0.03524000       2.81200000       0.76311000       0.26950000      -0.09271000       0.49688000
C       -0.91278000      -0.34315000      -1.57115000      -0.92583000      -0.66951000       0.93080000
C       -2.16913000      -0.34099000      -1.11679000       1.46562000       1.38078000      -1.36794000
H       -2.83462000       0.47099000      -1.35442000      -0.11047000       0.15030000       0.25364000
H       -2.49434000      -1.14680000      -0.56253000      -0.90784000      -1.63967000       0.99137000
C       -0.04474000      -1.54213000      -1.35940000       1.40631000       0.32946000      -1.25768000
H       -0.51406000       0.52273000      -2.03723000       0.43895000       0.40266000      -0.60730000
O       -0.37053000      -2.54036000      -0.78412000      -0.89834000      -0.52677000       0.69739000
C        1.38190000      -1.47116000      -1.90392000       0.64969000       1.20955000       1.62310000
H        1.85287000      -0.71998000      -1.20235000      -0.21840000      -0.56920000      -0.81816000
H        1.56007000      -1.11756000      -2.91141000      -0.39731000       0.32102000      -0.20287000
H        1.93151000      -2.39744000      -1.75816000      -0.34451000      -0.13390000       0.16138000
22
Lattice="100.0 0.0 0.0 0.0 100.0 0.0 0.0 0.0 100.0" Properties=species:S:1:pos:R:3:forces:R:3 config_type=vacuum energy=-11581.22517081 pbc="T T T"
C        0.34671000       2.16818000       1.58192000      -0.39394000      -0.80570000      -1.19391000
C       -0.77991000       1.21949000       2.04681000       2.54574000      -1.21594000       0.03534000
C       -0.25653000      -0.04826000       2.08282000       0.37905000       1.97794000      -1.51458000
H       -1.78612000       1.53516000       2.23456000      -0.17173000       0.08944000       0.32945000
C        1.12795000      -0.03304000       1.44920000      -1.60963000       0.05216000       0.81306000
H       -0.78842000      -0.96477000       2.24154000      -0.14222000      -0.18953000       0.35697000
C        1.45150000       1.21102000       1.06956000      -1.48307000       0.05283000       1.31604000
H        1.65022000      -0.96837000       1.35017000       0.36628000       0.06641000      -0.18526000
H        2.34222000       1.55595000       0.60321000       0.53504000       0.13970000      -0.24338000
H        0.77739000       2.79127000       2.38002000      -0.31113000      -0.04844000      -0.18113000
H       -0.03524000       2.81200000       0.76311000       0.26950000      -0.09271000       0.49688000
C       -0.91278000      -0.34315000      -1.57115000      -0.92583000      -0.66951000       0.93080000
C       -2.16913000      -0.34099000      -1.11679000       1.46562000       1.38078000      -1.36794000
H       -2.83462000       0.47099000      -1.35442000      -0.11047000       0.15030000       0.25364000
H       -2.49434000      -1.14680000      -0.56253000      -0.90784000      -1.63967000       0.99137000
C       -0.04474000      -1.54213000      -1.35940000       1.40631000       0.32946000      -1.25768000
H       -0.51406000       0.52273000      -2.03723000       0.43895000       0.40266000      -0.60730000
O       -0.37053000      -2.54036000      -0.78412000      -0.89834000      -0.52677000       0.69739000
C        1.38190000      -1.47116000      -1.90392000       0.64969000       1.20955000       1.62310000
H        1.85287000      -0.71998000      -1.20235000      -0.21840000      -0.56920000      -0.81816000
H        1.56007000      -1.11756000      -2.91141000      -0.39731000       0.32102000      -0.20287000
H        1.93151000      -2.39744000      -1.75816000      -0.34451000      -0.13390000       0.16138000
22
Lattice="100.0 0.0 0.0 0.0 100.0 0.0 0.0 0.0 100.0" Properties=species:S:1:pos:R:3:forces:R:3 config_type=vacuum energy=-11580.97977033 pbc="T T T"
C       -0.02324000       0.89244000       1.09470000      -0.06596000       0.66130000      -0.05204000
C        1.27874000       0.94671000       1.88476000      -0.00048000      -0.99473000      -0.12549000
C        1.14986000       1.78267000       2.91003000      -0.84058000       0.15817000      -0.47063000
H        2.22924000       0.46155000       1.67045000      -0.60047000      -0.36271000      -0.27712000
C       -0.15453000       2.42086000       2.76779000      -1.44191000       2.24167000       2.44358000
H        1.86289000       1.97885000       3.68339000       0.25814000       0.25315000       0.10607000
C       -0.84736000       2.01356000       1.70226000       0.34434000      -0.82798000       0.32569000
H       -0.54359000       3.16498000       3.54196000       0.59435000      -0.95081000      -1.28643000
H       -1.84260000       2.33357000       1.36322000       0.66580000      -0.23950000       0.30411000
H       -0.62152000      -0.04772000       1.06755000       0.91862000       0.49250000       0.06827000
H        0.21019000       1.20352000       0.09658000       0.11213000      -0.29360000      -1.03909000
C       -1.10985000      -2.41760000      -2.28425000       1.53094000       0.81231000      -1.10915000
C       -2.14013000      -2.72276000      -1.52426000       1.01209000       0.38390000       1.13674000
H       -2.98766000      -3.19032000      -1.91409000      -1.26707000      -0.49137000      -0.62056000
H       -2.11663000      -2.51685000      -0.44875000       0.11365000      -0.16974000      -0.41033000
C        0.17377000      -1.77583000      -1.73769000      -2.78534000      -0.37306000       1.14515000
H       -1.10924000      -2.49036000      -3.38014000      -0.28769000      -0.39741000       0.44883000
O        0.30170000      -1.68134000      -0.54310000       0.37591000      -0.30223000       0.64604000
C        1.10687000      -1.13449000      -2.62517000       1.30787000       0.45742000      -1.99018000
H        1.01913000      -1.35816000      -3.67936000       0.03361000      -0.84284000      -0.20038000
H        2.12246000      -1.22204000      -2.29284000       0.52618000      -0.56213000       0.20827000
H        0.99128000      -0.07610000      -2.67879000      -0.68722000       1.06454000       0.61922000
22
Lattice="100.0 0.0 0.0 0.0 100.0 0.0 0.0 0.0 100.0" Properties=species:S:1:pos:R:3:forces:R:3 config_type=vacuum energy=-11580.59345095 pbc="T T T"
C       -0.05261000       1.81093000       0.86675000      -2.63016000       0.37585000       0.94912000
C       -0.90184000       0.79822000       1.69188000       2.37013000       0.11549000       0.19667000
C        0.05222000      -0.15444000       2.12334000      -1.74447000      -0.06955000      -0.62859000
H       -1.86339000       0.99107000       2.11250000      -0.11172000       0.27945000       0.59923000
C        1.18761000      -0.08520000       1.29218000       0.07933000       0.26665000      -0.14430000
H       -0.22671000      -0.99990000       2.74115000       0.27141000       0.15650000       0.10486000
C        1.00822000       0.96915000       0.43389000       1.91774000      -1.18491000      -0.64666000
H        1.96852000      -0.82403000       1.19638000      -0.07383000       0.01012000       0.22337000
H        1.64035000       1.28438000      -0.36579000       0.65574000      -0.00832000      -0.18302000
H        0.34688000       2.61874000       1.48426000      -0.14261000      -0.02916000       0.26199000
H       -0.59852000       2.23787000       0.04243000      -0.17047000       0.46819000      -0.06241000
C       -0.68868000      -0.06379000      -0.94733000      -0.59049000      -0.06373000       0.11828000
C       -1.74958000      -0.05101000      -0.05806000       0.58500000      -0.10705000      -0.14496000
H       -2.35083000       0.83771000       0.02935000      -0.45925000      -0.22782000      -0.50930000
H       -2.15429000      -0.99154000       0.34007000       0.38861000       0.57595000      -0.17137000
C        0.04851000      -1.27581000      -1.16641000       0.16455000      -3.32564000       1.09759000
H       -0.46765000       0.74192000      -1.61433000      -0.09226000       0.43175000      -0.17414000
O       -0.10268000      -2.26903000      -0.42164000      -0.10800000       1.59027000      -0.69195000
C        1.02504000      -1.45122000      -2.30968000       0.46701000       0.98318000       0.89254000
H        1.80673000      -0.66580000      -2.20736000      -0.31707000      -0.54823000      -0.27088000
H        0.48981000      -1.28591000      -3.22199000      -0.18865000       0.14826000      -0.74291000
H        1.46174000      -2.45768000      -2.26616000      -0.16328000       0.49503000      -0.01681000
22
Lattice="100.0 0.0 0.0 0.0 100.0 0.0 0.0 0.0 100.0" Properties=species:S:1:pos:R:3:forces:R:3 config_type=vacuum energy=-11581.17237259 pbc="T T T"
C        0.12977000       1.99169000       1.84767000      -0.49662000       1.64920000       1.23649000
C       -0.18636000       0.72480000       2.60027000       1.49678000      -0.44773000      -0.87987000
C        0.92734000      -0.04526000       2.47321000      -0.56838000      -0.97938000       1.26100000
H       -1.13225000       0.46945000       3.05633000       0.15494000       0.03542000      -0.04125000
C        1.97595000       0.66222000       1.77395000       1.05348000      -0.50149000       0.42768000
H        1.15177000      -1.02984000       2.93331000      -0.60060000       0.69974000      -0.43282000
C        1.57071000       1.87400000       1.45137000      -0.79559000       0.92085000      -1.16401000
H        2.98498000       0.29059000       1.67208000      -0.01371000      -0.15250000      -0.11386000
H        2.14273000       2.67147000       0.96986000      -0.31308000      -0.39693000       0.19430000
H        0.07150000       2.91620000       2.50012000      -0.31392000      -0.93274000      -0.40280000
H       -0.60186000       2.16600000       1.05348000       0.27752000       0.05084000      -0.18627000
C       -1.49598000      -0.68416000      -2.27551000       1.69705000       0.50562000       0.63608000
C       -2.64965000      -1.25127000      -2.49713000       1.10965000      -1.77452000       0.56549000
H       -3.46986000      -0.85408000      -2.94860000      -1.96012000       1.33932000      -1.32287000
H       -2.70085000      -2.29415000      -2.20588000      -0.32000000       0.05762000       0.21429000
C       -0.48100000      -1.46020000      -1.49457000       0.20359000      -0.73170000       0.06823000
H       -1.14532000       0.30030000      -2.53510000      -0.48545000       0.35963000      -0.33376000
O       -0.83241000      -2.38923000      -0.80594000      -0.09957000      -0.26856000       0.15322000
C        1.00059000      -1.13400000      -1.56787000      -1.08280000      -0.73380000      -0.59771000
H        1.11978000      -0.21792000      -2.11468000       0.60867000       0.38904000      -0.10233000
H        1.48233000      -1.99014000      -2.08185000      -0.17405000       0.63793000       0.25181000
H        1.33779000      -1.10145000      -0.55000000       0.43756000       0.28695000       0.32896000
22
Lattice="100.0 0.0 0.0 0.0 100.0 0.0 0.0 0.0 100.0" Properties=species:S:1:pos:R:3:forces:R:3 config_type=vacuum energy=-11581.94101485 pbc="T T T"
C       -0.16880000       1.90776000       0.53299000      -0.86190000      -0.21119000      -1.07526000
C       -0.97319000       0.98674000       1.42447000      -0.28790000      -1.27705000       0.42811000
C        0.14161000       0.20089000       2.16464000      -2.08829000       2.37268000      -2.20183000
H       -1.81341000       1.38939000       1.98153000       0.33560000       0.27717000       0.33221000
C        1.11970000       0.11433000       1.31593000       1.71814000       0.08490000      -1.03346000
H       -0.03610000      -0.26784000       3.03970000      -0.25302000      -1.47645000       2.70080000
C        0.74291000       0.84243000       0.03021000       2.27703000      -2.03804000      -1.71464000
H        2.00780000      -0.46848000       1.45555000       0.30902000      -0.19194000      -0.08881000
H        1.61288000       1.04954000      -0.74798000      -1.78603000      -0.03171000       1.91025000
H        0.31287000       2.67808000       1.04450000       0.85804000       1.28828000       0.87983000
H       -0.73675000       2.27617000      -0.32120000      -0.25308000       0.41206000       0.25869000
C       -0.34779000      -0.11849000      -0.66712000       0.11682000       1.24278000       0.26917000
C       -1.52921000       0.00201000       0.35757000      -0.69910000      -1.57945000      -0.91837000
H       -2.46854000       0.48688000      -0.03908000       1.05033000      -0.78219000      -0.06006000
H       -1.74354000      -1.10205000       0.64186000       0.09516000       2.16659000       0.16302000
C        0.08865000      -1.51615000      -1.03181000       0.10609000      -0.06154000       0.04192000
H       -0.47641000       0.38769000      -1.61164000      -0.69609000       0.17385000      -0.38375000
O       -0.34914000      -2.45614000      -0.41370000       0.33415000      -0.44091000      -0.42962000
C        1.12821000      -1.65985000      -2.17443000       0.40799000       0.15292000       1.67911000
H        2.02948000      -1.13116000      -1.73034000      -0.78778000      -0.58235000      -0.87587000
H        0.82168000      -1.17562000      -3.10118000      -0.07143000       0.10651000       0.17223000
H        1.37213000      -2.72368000      -2.33925000      -0.15576000       0.58224000       0.08059000
