112
Lattice="100.0 0.0 0.0 0.0 100.0 0.0 0.0 0.0 100.0" Properties=species:S:1:pos:R:3:forces:R:3 config_type=reactants_in_water energy=-74004.25689898 pbc="T T T"
C        5.68346000       7.18986000       6.64891000      -0.20101000      -0.26404000      -0.54298000
C        4.87191000       6.17740000       7.41838000      -0.91325000      -0.89260000      -1.67994000
C        5.76285000       5.17128000       7.80558000       0.08273000      -0.59722000      -0.21496000
H        3.99704000       6.44672000       7.99201000      -0.27677000      -0.68963000      -1.16807000
C        6.91477000       5.25013000       7.02144000       0.13138000      -0.03871000       0.13619000
H        5.53927000       4.37712000       8.50069000      -0.13727000      -0.12114000      -0.02686000
C        6.78320000       6.30828000       6.13985000       0.24758000       0.04131000      -0.40901000
H        7.70367000       4.51517000       7.00683000       0.04389000       0.01106000      -0.05546000
H        7.53838000       6.63622000       5.44209000      -0.03864000       0.11992000       0.05211000
H        6.11653000       7.89680000       7.36627000      -0.28308000       0.12760000      -0.38664000
H        5.14232000       7.75235000       5.89481000       0.19999000      -0.11211000       0.26235000
C        5.10394000       5.32733000       4.80340000       0.49972000      -0.02995000       0.54345000
C        4.05770000       5.36098000       5.71525000       0.45774000       0.13736000       0.89077000
H        3.29633000       6.12216000       5.61504000       0.15207000      -0.04371000       0.17841000
H        3.72848000       4.41837000       6.12557000      -0.04242000      -0.00179000      -0.07480000
C        5.82878000       4.07143000       4.59485000       0.19073000       0.00330000      -0.36102000
H        5.23046000       6.11091000       4.06977000       0.34925000       0.07434000      -0.01285000
O        5.66512000       3.10913000       5.32338000      -0.21972000      -0.14881000       0.14183000
C        6.80456000       4.02397000       3.44137000      -0.02062000      -0.12092000       0.28863000
H        7.47298000       4.88474000       3.46615000      -0.23171000      -0.30362000      -0.09890000
H        6.25537000       4.06411000       2.49931000       0.02508000       0.07922000       0.04016000
H        7.37889000       3.10320000       3.48301000      -0.01610000      -0.06705000       0.05924000
O        5.12098000       7.15281000       9.21477000       1.63798000       3.25926000       4.14610000
H        4.85849000       8.07631000       9.45736000       0.20267000      -0.89082000       0.04698000
H        6.10693000       7.14291000       9.30646000      -1.35623000      -0.02246000       0.02252000
O       10.27525000       1.05190000       5.99253000      -1.51731000      -0.57956000       0.59841000
H        9.45609000       0.90331000       5.45634000       1.26229000       0.26413000       0.70603000
H       10.02365000       0.77936000       6.91068000       0.25721000       0.53662000      -0.91313000
O        2.61859000       5.58694000       3.61572000       5.60274000      -0.12672000      -2.91839000
H        3.55254000       5.88116000       3.76336000      -1.39424000      -0.46830000      -1.00245000
H        2.47941000       5.68326000       2.64005000       0.28984000      -0.17168000       1.36555000
O        6.78841000       1.22936000       7.75642000       1.02870000       0.21995000      -0.41806000
H        7.32565000       0.66010000       7.14985000      -0.62283000       0.99885000       0.96360000
H        7.38400000       1.98950000       7.97563000      -0.78364000      -1.19620000      -0.60468000
O        9.03238000       6.58813000       9.44888000      -1.23572000       0.29618000       1.14193000
H        8.06132000       6.57856000       9.25507000       1.37020000      -0.30461000       0.06650000
H        9.09435000       6.38534000      10.41615000      -0.03327000       0.30526000      -1.36250000
O        3.03056000       7.49773000       1.09624000      -0.74888000      -0.39583000       0.76519000
H        3.40763000       7.67121000       1.99531000      -0.53497000      -0.45590000      -1.02096000
H        2.13948000       7.10350000       1.27273000       1.42079000       0.52024000      -0.39764000
O        1.60466000       9.49703000       7.90873000       1.15542000      -1.86891000      -0.00850000
H        2.18129000       9.51014000       8.71368000      -1.05895000       0.24788000      -1.10190000
H        1.71316000       8.58417000       7.54064000      -0.17201000       1.21556000       0.32434000
O        7.53791000       6.47358000       1.99112000       1.21217000       0.23465000      -0.16862000
H        8.06918000       6.02061000       1.28886000      -0.58612000       0.34044000       1.03182000
H        8.21362000       6.84855000       2.61031000      -1.19545000      -0.53114000      -0.83472000
O        8.67496000       3.90024000       0.66880000       0.68185000      -1.68598000      -0.21467000
H        9.62630000       3.67445000       0.82562000      -1.42931000       0.31259000      -0.20737000
H        8.23748000       3.02801000       0.50021000       0.49457000       1.19168000       0.23445000
O        8.90713000       8.92321000       4.51453000       1.03520000       0.94972000      -1.07508000
H        9.45491000       9.67246000       4.85975000      -0.81914000      -1.13300000      -0.30308000
H        8.87109000       9.07238000       3.53624000      -0.13770000       0.08494000       1.20273000
O        8.56415000       3.72742000       9.65620000      -1.14264000       0.19218000       1.28372000
H        7.64685000       4.07968000       9.53332000       1.14597000      -0.38749000       0.11718000
H        8.74793000       3.84543000      10.62207000      -0.24243000      -0.19489000      -1.30948000
O        1.59912000       4.45891000       1.26189000      -0.26756000      -1.33904000      -1.46593000
H        2.07652000       3.59468000       1.33807000      -0.32131000       1.29275000      -0.11725000
H        1.18043000       4.43286000       0.36489000       0.55816000       0.07982000       1.17309000
O        2.50013000       1.92285000       9.89497000      -0.73778000      -0.03888000      -1.35671000
H        1.85337000       1.20503000       9.67809000       0.92195000       1.00027000       0.20997000
H        2.67656000       2.36804000       9.02821000      -0.22854000      -0.76722000       1.10038000
O        0.29279000       5.44480000       9.03864000       0.96548000      -0.50191000       1.19354000
H        1.12856000       4.91438000       9.01155000      -1.18400000       0.63597000       0.11178000
H        0.13030000       5.60276000      10.00261000       0.26303000      -0.29815000      -1.32004000
O        1.23393000      10.81285000       9.94793000      -1.16749000       0.13025000       1.84966000
H        0.26305000      10.81662000       9.75304000       1.39682000      -0.13551000       0.10848000
H        1.29196000      10.61115000      10.91568000      -0.15789000       0.43671000      -1.24061000
O        8.57884000       9.00424000       7.51569000      -0.27246000      -1.04739000       1.28368000
H        9.15293000       8.59660000       8.21201000      -0.75055000       0.28619000      -0.96427000
H        7.81181000       8.38356000       7.43186000       1.25493000       0.77269000      -0.18374000
O        2.31345000       8.29090000       3.56627000       2.34622000       4.29616000      -1.67501000
H        1.78730000       8.83083000       2.92421000       0.89489000      -0.33535000       0.90192000
H        3.03066000       8.90050000       3.87383000      -0.84393000      -0.41735000      -0.39228000
O        2.32853000       0.70854000       5.21075000       0.16185000       1.74083000      -0.06498000
H        1.68770000       1.36280000       4.83406000       0.91448000      -0.90280000       0.47841000
H        3.10363000       1.25559000       5.49455000      -0.96048000      -0.60043000      -0.37540000
O        0.75368000       4.83239000       4.00491000      -3.80014000      -4.23463000      -1.63592000
H        1.18209000       4.13275000       3.45032000      -0.85966000       0.98453000       0.81951000
H        0.19923000       5.34919000       3.36765000       0.91409000      -1.02399000       1.03930000
O        4.42949000       1.23644000       1.04762000      -0.39016000      -1.43859000      -0.18115000
H        4.59184000       0.42289000       1.58836000      -0.02835000       1.09548000      -0.80295000
H        3.95335000       0.90894000       0.24348000       0.65309000       0.30692000       1.07121000
O       10.66852000       1.26097000       3.13618000      -0.87815000       0.68308000      -1.38007000
H       10.90551000       2.11424000       2.69306000      -0.38269000      -1.16544000       0.71242000
H        9.76870000       1.04112000       2.78606000       1.22445000       0.35071000       0.41161000
O        8.52316000       8.97726000       1.18863000       1.23458000      -0.39165000      -0.87159000
H        9.16987000       8.25459000       1.38890000      -1.02788000       0.91601000      -0.77568000
H        8.58119000       9.09725000       0.20739000       0.00014000      -0.22848000       1.39408000
O        5.26313000       8.76112000       1.87253000      -0.68965000       0.64357000      -1.03918000
H        5.54455000       8.28836000       1.04918000      -0.27485000       0.47796000       1.26860000
H        4.52384000       9.35116000       1.57946000       1.02802000      -0.89289000       0.10005000
O       10.09817000       6.14038000       1.18179000       1.84651000       0.27523000       0.62745000
H       10.90972000       5.66519000       0.87164000      -1.02248000       0.81429000       0.35487000
H       10.38492000       6.60969000       2.00527000      -0.15415000      -0.84204000      -0.96398000
O        0.39280000       8.60907000       0.73614000       0.43319000       0.10603000       1.53536000
H        1.15425000       9.19204000       0.98301000      -0.91169000      -0.92960000      -0.54641000
H        0.22997000       8.05860000       1.54302000       0.12225000       0.73184000      -1.05749000
O        1.16658000       6.87248000       4.41401000      -4.69720000       1.86762000       3.86942000
H        1.12826000       6.51786000       5.33780000      -0.45158000       0.06345000      -1.37453000
H        0.37090000       7.45724000       4.33951000       0.84931000      -0.32714000       0.76701000
O        1.73783000       0.34992000       2.13786000       0.93432000       0.93608000      -0.51377000
H        1.64079000       1.27713000       1.80399000       0.29647000      -1.34694000       0.53074000
H        2.71245000       0.23434000       2.26954000      -1.53255000       0.40612000       0.02734000
O        6.20461000      10.37635000      10.08099000       1.05006000      -1.07145000       0.19641000
H        6.31890000       9.51956000       9.59781000       0.16187000       1.40934000       0.49428000
H        7.02384000      10.46249000      10.63055000      -1.08359000      -0.13356000      -0.81890000
O        9.36602000       1.06319000       8.88004000      -0.28999000      -0.53142000       1.62355000
H        8.85385000       1.77321000       9.34283000       0.75849000      -0.62179000      -0.54870000
H        9.40374000       0.31915000       9.53239000      -0.15431000       1.02816000      -0.94123000
O        5.81896000       9.63306000       5.20157000      -0.16796000       1.71382000      -0.90220000
H        5.44077000       9.75033000       4.29392000       0.76636000      -0.22674000       1.01024000
H        6.30916000      10.47543000       5.37684000      -0.57240000      -1.23033000      -0.25577000
109
Lattice="100.0 0.0 0.0 0.0 100.0 0.0 0.0 0.0 100.0" Properties=species:S:1:pos:R:3:forces:R:3 config_type=reactants_in_water energy=-71928.28254525 pbc="T T T"
C        5.68346000       7.18986000       6.64891000       0.08833000      -0.13824000      -0.32009000
C        4.87191000       6.17740000       7.41838000      -0.17069000       0.26874000      -0.93407000
C        5.76285000       5.17128000       7.80558000      -0.01185000       0.00458000      -0.06344000
H        3.99704000       6.44672000       7.99201000       0.32112000      -0.22880000      -0.80755000
C        6.91477000       5.25013000       7.02144000       0.19382000      -0.11956000       0.01222000
H        5.53927000       4.37712000       8.50069000      -0.04829000      -0.10358000      -0.06887000
C        6.78320000       6.30828000       6.13985000       0.06622000       0.19271000       0.09089000
H        7.70367000       4.51517000       7.00683000       0.02316000      -0.05104000       0.04794000
H        7.53838000       6.63622000       5.44209000       0.04444000       0.05902000      -0.01347000
H        6.11653000       7.89680000       7.36627000       0.06507000       0.03628000      -0.08751000
H        5.14232000       7.75235000       5.89481000       0.21660000      -0.08255000       0.23096000
C        5.10394000       5.32733000       4.80340000       0.03242000      -0.17591000      -0.08083000
C        4.05770000       5.36098000       5.71525000      -0.19120000      -0.76360000       0.16008000
H        3.29633000       6.12216000       5.61504000       0.79205000      -0.68023000       0.02764000
H        3.72848000       4.41837000       6.12557000       0.27330000      -0.24739000       0.04185000
C        5.82878000       4.07143000       4.59485000      -0.23447000       0.30963000       0.16829000
H        5.23046000       6.11091000       4.06977000       0.03797000       0.09513000       0.02886000
O        5.66512000       3.10913000       5.32338000       0.07381000      -0.15443000      -0.13242000
C        6.80456000       4.02397000       3.44137000       0.05452000       0.00406000       0.04069000
H        7.47298000       4.88474000       3.46615000       0.03420000       0.01570000       0.01251000
H        6.25537000       4.06411000       2.49931000      -0.07451000      -0.07270000       0.03202000
H        7.37889000       3.10320000       3.48301000       0.00046000      -0.01619000      -0.08313000
O        2.71207000       2.38731000       9.42646000       0.72868000       0.66549000       1.03052000
H        3.27302000       2.28782000      10.23643000      -0.85999000       0.30831000      -1.14032000
H        2.53162000       3.35919000       9.36745000       0.08250000      -1.00094000       0.11474000
O        3.01901000       7.80233000       5.65680000      -0.97640000       1.11536000      -1.14526000
H        2.13507000       7.42419000       5.41961000       0.92634000       1.18163000       0.10444000
H        3.24579000       8.39755000       4.89859000      -0.47949000      -0.89747000       0.83371000
O        0.79147000       6.14795000       0.94652000       0.32155000      -1.55746000       0.59432000
H        1.64853000       5.82317000       1.32146000      -1.17627000       0.44825000      -0.56102000
H        0.19189000       5.36055000       0.97970000       0.88564000       1.05650000      -0.07970000
O        1.03340000       4.60254000       7.59454000       0.14108000      -0.14595000      -1.47687000
H        0.58201000       3.99400000       6.95694000       0.80768000       0.84682000       0.63424000
H        1.72254000       5.06294000       7.05260000      -0.88149000      -0.65439000       0.71872000
O        5.80946000       9.25256000       3.21685000       0.68934000       0.40685000      -0.92402000
H        6.70662000       8.90920000       2.97638000      -1.03596000       0.49487000       0.04109000
H        5.68757000      10.05096000       2.64388000       0.24822000      -1.04633000       0.83424000
O        4.04738000       6.37252000       9.80994000       1.46420000      -0.28158000       2.30851000
H        4.28709000       5.51282000      10.23898000      -0.45220000       1.26580000      -0.43688000
H        4.83894000       6.95018000       9.95252000      -1.11648000      -0.82828000      -0.08353000
O        8.03250000       8.40388000       1.54812000       1.46716000      -0.47946000      -0.69288000
H        8.92395000       8.15026000       1.89682000      -1.14025000       0.46366000      -0.44032000
H        8.15836000       8.46745000       0.56796000      -0.30102000      -0.16983000       1.32878000
O        0.57364000       1.48204000       6.51962000       0.43145000       0.90236000       1.12298000
H        0.06703000       2.05815000       7.14577000       0.77025000      -1.04466000      -0.64011000
H        1.47335000       1.40499000       6.92606000      -1.12931000       0.13351000      -0.35877000
O        3.16076000       2.97641000       0.50817000       0.93822000       2.36373000       1.66018000
H        3.85067000       3.59354000       0.86000000      -0.92931000      -0.40077000      -0.48656000
H        2.43075000       3.01351000       1.17623000       1.17472000      -0.07701000      -1.09932000
O        3.25578000       9.05431000       2.05685000       0.91032000      -0.55907000      -1.10631000
H        3.23529000       9.04162000       1.06689000      -0.12283000      -0.07525000       1.37678000
H        4.12932000       8.65159000       2.29212000      -0.83268000       0.56374000      -0.19235000
O        6.13660000       5.70253000       0.30017000       0.40917000      -1.11718000       1.08469000
H        6.29141000       5.82795000       1.27018000      -0.10563000      -0.10145000      -1.34275000
H        6.43738000       4.77670000       0.11858000      -0.35937000       1.24069000       0.21430000
O        1.76442000       7.59147000      10.21897000      -0.48412000       0.58610000      -1.76409000
H        2.42000000       7.54429000       9.47829000      -0.99626000      -0.27291000       1.29273000
H        1.13260000       8.30347000       9.94611000       1.04105000      -1.07046000       0.54701000
O       10.17502000       8.25959000       7.21817000       1.24314000      -1.21693000       0.35772000
H       10.67289000       7.88809000       7.98935000      -0.69097000       0.35568000      -1.19865000
H       10.52893000       7.76847000       6.43450000      -0.31181000       0.51296000       1.09910000
O       10.22504000       2.18086000       7.34345000       0.51024000      -1.02347000      -0.72390000
H       10.99869000       2.37193000       6.75559000      -1.28385000      -0.01186000       0.61236000
H        9.84732000       1.33653000       6.98988000       0.46897000       1.11585000       0.48980000
O        5.60137000       0.78320000       9.62190000      -0.52760000       1.18450000       1.22482000
H        4.71460000       0.85892000      10.05609000       1.28187000      -0.19512000      -0.68840000
H        6.17450000       1.42266000      10.11505000      -0.73252000      -0.96929000      -0.59180000
O        4.14335000       9.71665000       8.64613000      -1.05109000      -0.81842000       0.77575000
H        4.04591000       9.87937000       9.61806000      -0.07304000      -0.22136000      -1.08022000
H        3.55013000       8.94519000       8.46302000       0.95422000       1.01986000       0.09588000
O       10.58241000       3.01504000       4.86215000      -0.83402000      -0.99828000      -1.22548000
H       10.77072000       2.16926000       4.38277000      -0.33618000       1.22531000       0.45738000
H        9.59431000       3.07934000       4.87308000       1.29939000      -0.11186000       0.10636000
O        6.49770000       9.36493000       9.97238000       0.06795000      -0.83196000      -0.96846000
H        6.08950000       9.72422000       9.14480000       0.12850000      -0.68994000       1.01590000
H        6.51695000       8.38457000       9.83416000      -0.03199000       1.42082000       0.01954000
O        4.42882000       0.35719000       2.95916000       1.36201000       0.83785000      -0.48135000
H        4.50233000       1.33756000       3.07777000      -0.05770000      -1.30805000      -0.05430000
H        5.34273000       0.06810000       2.71060000      -1.26976000       0.40315000       0.54158000
O        1.36582000       9.64249000       5.18750000      -0.13619000       1.97550000      -0.26174000
H        2.23989000      10.10718000       5.16145000      -1.31258000      -0.45547000       0.06862000
H        0.70342000      10.34795000       4.97740000       0.96444000      -0.91791000       0.13730000
O        0.98877000       4.19819000      10.67214000      -0.94371000      -0.85258000      -0.88124000
H        0.96554000       3.21040000      10.60611000      -0.10436000       1.26875000       0.00771000
H        0.33901000       4.50767000       9.99197000       1.03869000      -0.28801000       0.80842000
O        7.70847000       1.10063000       0.72518000      -0.69329000      -1.44960000       0.39508000
H        6.77860000       0.89948000       0.99994000       1.22208000       0.26574000      -0.51100000
H        8.14425000       0.21406000       0.65673000      -0.60868000       1.20819000       0.07489000
O        9.73731000       9.23417000       4.77179000      -0.25834000      -0.70936000       0.90651000
H       10.04656000       9.58356000       5.64523000      -0.61836000      -0.55363000      -1.18038000
H        9.15964000       8.46387000       5.00315000       0.56796000       1.37080000      -0.12767000
O        2.00611000       1.05454000       0.47596000      -0.73355000      -2.47663000       1.03186000
H        1.78400000       1.07252000       1.44081000       0.40456000      -0.47210000      -1.27884000
H        2.52967000       0.22243000       0.35734000      -0.68426000       1.20103000       0.34783000
O        7.69644000      10.80628000       6.89485000       0.75033000      -0.42083000       1.25391000
H        8.68309000      10.83414000       6.97460000      -1.42059000      -0.10186000       0.02774000
H        7.38415000      10.50188000       7.78390000       0.65582000       0.46178000      -1.18266000
O       10.20875000       9.22404000      10.35755000       0.09118000      -1.46157000      -1.21166000
H       10.92197000       8.92679000       9.73822000      -0.98288000       0.50243000       0.93437000
H        9.44147000       8.63173000      10.15495000       0.92693000       0.93239000       0.22680000
O        9.55916000       4.40968000      10.29188000      -0.21714000       1.57606000       0.62561000
H       10.16866000       4.92508000      10.87795000      -0.88196000      -0.68868000      -0.76689000
H        8.78261000       5.00841000      10.15372000       1.09125000      -0.78932000       0.18467000
O        1.68279000      10.24504000      10.21262000      -1.37462000       0.44660000      -1.20404000
H        1.74796000      10.10221000       9.23489000      -0.08337000       0.55871000       1.18934000
H        0.72257000      10.42580000      10.37351000       1.31255000      -0.08482000      -0.15119000
O        9.17355000       0.48438000       9.29408000       0.55231000       0.94148000      -0.44769000
H       10.14650000       0.56196000       9.12690000      -1.43154000       0.21138000       0.27614000
H        8.80658000       1.36775000       9.03797000       0.78843000      -1.11586000       0.36695000
22
Lattice="100.0 0.0 0.0 0.0 100.0 0.0 0.0 0.0 100.0" Properties=species:S:1:pos:R:3:forces:R:3 config_type=vacuum energy=-11580.50706075 pbc="T T T"
C       -0.12027000       1.81047000       0.91412000       1.04000000       0.28650000      -0.24532000
C       -0.89206000       0.76843000       1.69938000      -1.29258000       2.59919000      -1.28884000
C       -0.02689000      -0.18187000       2.04033000       2.77046000      -2.06455000       0.69222000
H       -1.76680000       1.04541000       2.24610000      -0.39222000      -0.06481000       0.25136000
C        1.17559000      -0.06895000       1.27180000      -0.39232000      -2.63767000       1.55436000
H       -0.21927000      -0.99354000       2.71602000      -0.08031000      -0.14998000       0.14579000
C        1.02684000       0.90932000       0.39121000      -1.05061000       3.12887000      -1.03963000
H        1.94542000      -0.83676000       1.21403000      -0.20247000       0.24832000       0.27051000
H        1.75495000       1.27547000      -0.31275000       0.08249000      -0.05243000      -0.09193000
H        0.34274000       2.52730000       1.63299000      -0.23242000      -0.37501000      -0.38800000
H       -0.66613000       2.39513000       0.15352000       0.23679000      -0.42174000       0.43081000
C       -0.62685000      -0.08153000      -0.93939000      -1.77383000       2.28288000       0.33518000
C       -1.68513000       0.02915000      -0.02272000       0.45044000      -3.88874000       0.32414000
H       -2.47933000       0.70491000      -0.13198000      -0.58804000       1.16329000      -0.21485000
H       -2.04879000      -0.97349000       0.41156000       0.63264000       1.66602000      -0.71932000
C        0.05863000      -1.31659000      -1.15100000       0.82171000       1.64956000      -1.60612000
H       -0.53228000       0.73837000      -1.65008000       0.29232000      -0.35687000      -0.02408000
O       -0.08664000      -2.24385000      -0.43952000      -0.64282000      -3.05464000       2.48475000
C        1.01129000      -1.38389000      -2.28811000       1.20377000       1.75377000       0.08405000
H        1.72938000      -0.53146000      -2.27691000      -0.63747000      -0.32875000       0.03059000
H        0.49561000      -1.34496000      -3.20862000      -0.73165000       0.15447000      -1.11505000
H        1.60999000      -2.24709000      -2.27000000       0.52528000      -1.30658000       0.22575000
22
Lattice="100.0 0.0 0.0 0.0 100.0 0.0 0.0 0.0 100.0" Properties=species:S:1:pos:R:3:forces:R:3 config_type=vacuum energy=-11580.39735682 pbc="T T T"
C       -0.14744000       1.72969000       0.82905000       0.66675000       1.23867000       1.39260000
C       -0.86541000       0.80849000       1.82011000       1.22920000      -0.07637000      -1.23575000
C        0.01084000      -0.23738000       2.06583000      -0.71819000       0.08364000       0.41409000
H       -1.75184000       1.05404000       2.38696000       0.07771000       0.03354000      -0.18031000
C        1.13802000      -0.13543000       1.23417000       1.07482000       0.41956000       1.09542000
H       -0.19510000      -1.08340000       2.71399000       0.08555000       0.28544000       0.03157000
C        1.04420000       0.94768000       0.42581000       0.07149000      -0.67155000      -0.97717000
H        2.07166000      -0.65308000       1.38137000      -0.24746000      -0.67084000      -0.26938000
H        1.87629000       1.23497000      -0.23112000      -0.76563000       0.29461000       0.25600000
H        0.44715000       2.47969000       1.37875000      -0.68357000       0.49216000       0.46652000
H       -0.75769000       2.23072000       0.08039000       0.27117000      -0.01138000       0.22011000
C       -0.70772000      -0.04239000      -0.93515000      -0.30616000      -0.48129000      -0.08241000
C       -1.71490000      -0.02155000      -0.00517000      -0.32758000      -1.41192000      -0.92906000
H       -2.47668000       0.69158000      -0.11957000      -0.68430000       1.19541000       0.17303000
H       -2.08462000      -0.92376000       0.48062000       0.52238000       0.05473000      -0.36757000
C        0.05506000      -1.22445000      -1.15995000       0.45285000      -3.65849000       0.85443000
H       -0.44180000       0.71967000      -1.63425000      -0.46572000       0.76127000      -0.09989000
O       -0.10078000      -2.25518000      -0.46124000       0.20617000       1.79640000      -1.00140000
C        1.05420000      -1.32040000      -2.32280000       0.12326000       0.30207000       0.91283000
H        1.68904000      -0.42846000      -2.38692000      -0.21371000      -0.07234000      -0.08634000
H        0.49555000      -1.42884000      -3.24556000      -0.04868000      -0.08301000      -0.21332000
H        1.70026000      -2.19223000      -2.14224000      -0.39239000       0.31602000      -0.18320000
124
Lattice="100.0 0.0 0.0 0.0 100.0 0.0 0.0 0.0 100.0" Properties=species:S:1:pos:R:3:forces:R:3 config_type=reactants_in_water energy=-82337.12237592 pbc="T T T"
C        5.64629000       7.23775000       6.65136000       0.74193000       0.20319000       0.08621000
C        4.80922000       6.24456000       7.39897000      -0.90046000       0.75220000       0.47963000
C        5.63443000       5.21005000       7.80900000       0.37985000       0.67649000      -0.42233000
H        3.86224000       6.59050000       7.87352000       1.12516000      -0.95359000      -0.64649000
C        6.86762000       5.33025000       7.11069000       0.15022000       0.27894000       0.06765000
H        5.32288000       4.36785000       8.38780000       0.08836000      -0.39766000       0.26802000
C        6.84641000       6.43204000       6.26198000      -1.05029000      -1.04314000       0.83600000
H        7.67542000       4.62202000       7.24232000      -0.09045000      -0.10341000      -0.25362000
H        7.59321000       6.75358000       5.55421000      -0.05881000       0.02179000       0.26027000
H        5.97656000       7.99856000       7.36942000      -0.05048000       0.01423000      -0.18487000
H        5.17854000       7.71341000       5.80956000      -0.11895000       0.43285000       0.06665000
C        4.97258000       5.38400000       4.87023000       0.52358000      -0.44822000      -0.99755000
C        3.90254000       5.51048000       5.73024000      -0.30596000      -0.64586000      -0.48751000