22
Lattice="100.0 0.0 0.0 0.0 100.0 0.0 0.0 0.0 100.0" Properties=species:S:1:pos:R:3:forces:R:3 config_type=vacuum energy=-11581.09586806 pbc="T T T"
C        1.24772000       0.97823000       1.93518000       1.26645000       2.42235000       1.04644000
C        1.09178000      -0.39035000       2.37981000       0.56326000      -1.85555000      -0.16400000
C        1.38077000      -1.20211000       1.34916000      -0.22042000      -0.79916000      -0.53415000
H        0.89798000      -0.79711000       3.35293000      -0.25227000       0.36870000       0.37055000
C        1.69355000      -0.40355000       0.15593000       1.10175000      -0.28858000      -0.13526000
H        1.32778000      -2.29815000       1.34008000       0.11748000       0.58295000       0.11971000
C        1.67926000       0.88716000       0.52453000      -1.12463000       0.31842000      -0.73809000
H        2.06417000      -0.81112000      -0.79982000      -0.60763000       0.22338000       0.58498000
H        1.66631000       1.78428000      -0.08714000       0.58403000      -0.30838000      -0.06427000
H        2.03322000       1.60913000       2.48659000      -0.93000000      -1.07624000      -0.37142000
H        0.34948000       1.57312000       2.05922000      -0.36916000       0.11336000      -0.04734000
C       -1.63454000       0.19060000      -0.14956000       0.02009000      -1.03840000       0.08256000
C       -1.94595000      -0.54349000       0.92236000       0.04731000      -1.13445000      -1.86703000
H       -2.34481000      -0.08456000       1.79688000       0.09010000       0.09479000       0.63797000
H       -1.91055000      -1.65869000       0.78316000      -0.12175000       1.28856000       0.49487000
C       -1.25110000      -0.38402000      -1.48219000      -1.73924000      -3.98703000       2.80130000
H       -1.64481000       1.23589000      -0.12209000      -0.15265000       1.54261000       0.27448000
O       -1.51075000      -1.59964000      -1.65726000       0.93865000       2.83608000      -0.46674000
C       -0.57629000       0.46145000      -2.42482000       1.30123000       2.31206000      -0.95821000
H       -0.92610000       0.20041000      -3.41333000       0.16943000       0.14013000      -0.39081000
H        0.51134000       0.26937000      -2.32618000      -0.54581000      -0.19504000      -0.25385000
H       -0.65218000       1.58779000      -2.22345000      -0.37749000      -1.66883000      -0.24561000
22
Lattice="100.0 0.0 0.0 0.0 100.0 0.0 0.0 0.0 100.0" Properties=species:S:1:pos:R:3:forces:R:3 config_type=vacuum energy=-11580.96962618 pbc="T T T"
C       -0.01620000       2.12785000       1.15660000       0.78813000       0.50080000      -1.62289000
C       -0.68734000       1.20584000       2.09703000      -1.83889000       0.48515000       0.78633000
C        0.15277000       0.27709000       2.50432000       0.78996000       0.01271000      -0.85504000
H       -1.70081000       1.23591000       2.53346000       0.65364000       0.67804000      -0.46395000
C        1.36620000       0.34925000       1.65692000       0.45824000      -1.24264000       1.61549000
H       -0.09887000      -0.38146000       3.29432000       0.21125000      -0.81699000       0.40607000
C        1.25695000       1.34409000       0.78298000      -1.63154000       0.08322000       1.78587000
H        2.20276000      -0.31874000       1.90729000      -0.30272000       0.33821000      -0.81402000
H        1.91136000       1.56282000       0.01557000       1.27394000       0.78252000      -1.23664000
H        0.32460000       3.01237000       1.75225000      -0.24174000      -0.46509000      -0.44593000
H       -0.51676000       2.52326000       0.24728000      -0.18441000      -0.34877000       0.76903000
C       -1.16694000      -0.66875000      -1.26130000      -1.75905000       1.74950000      -0.94176000
C       -2.10591000      -0.95792000      -0.35253000       2.50796000      -0.71349000      -0.10839000
H       -2.83474000      -0.26949000      -0.06209000      -1.17377000       0.80958000       0.14774000
H       -1.91419000      -1.82108000       0.25693000      -0.43313000      -0.40075000       0.15991000
C       -0.04473000      -1.59439000      -1.59388000      -0.59715000      -0.99900000       1.19290000
H       -1.39028000       0.28464000      -1.82269000       0.96949000      -1.07445000       0.36546000
O       -0.10191000      -2.71269000      -1.10594000       0.48928000       0.51569000      -0.73567000
C        1.14969000      -1.08447000      -2.33257000      -0.40197000       1.91527000       0.52111000
H        1.73435000      -0.55400000      -1.55016000      -0.32759000       0.00516000      -0.50302000
H        0.87398000      -0.35531000      -3.11631000       0.18854000      -0.33789000       0.45305000
H        1.78935000      -1.82160000      -2.71334000       0.54051000      -1.29292000      -0.61197000
22
Lattice="100.0 0.0 0.0 0.0 100.0 0.0 0.0 0.0 100.0" Properties=species:S:1:pos:R:3:forces:R:3 config_type=vacuum energy=-11580.85868406 pbc="T T T"
C       -0.28561000       1.81686000       0.83904000       0.39202000       1.18833000       0.58773000
C       -1.09393000       0.61855000       1.38751000      -0.35843000      -0.81534000       2.13602000
C        0.05274000      -0.31730000       1.95426000      -0.43559000       0.96503000      -1.15445000
H       -1.92565000       0.78223000       2.09007000       0.63301000       0.26564000       0.05199000
C        1.16325000      -0.04822000       1.25435000      -2.78149000       1.10088000      -1.54450000
H       -0.09923000      -1.19708000       2.57262000      -0.02780000       0.49046000       0.25002000
C        0.67585000       0.90373000       0.09315000      -0.22231000       0.37890000      -1.10016000
H        2.06857000      -0.56928000       1.24922000       1.16811000      -0.67056000       0.05455000
H        1.42479000       1.39429000      -0.55419000      -0.25954000      -0.33041000       0.51802000
H        0.31437000       2.44051000       1.59370000      -1.19478000      -0.96933000      -0.77926000
H       -0.88916000       2.51189000       0.17310000       0.67390000      -0.96823000       0.74210000
C       -0.53105000       0.13693000      -0.86004000       1.68081000      -0.94216000       0.85803000
C       -1.67107000       0.00262000       0.12959000      -0.17123000      -0.57797000      -1.19247000
H       -2.64563000       0.41233000      -0.17956000       0.65585000       0.45366000       0.02783000
H       -1.81319000      -1.06417000       0.07275000      -0.43221000      -0.48034000       1.19575000
C        0.15578000      -1.21486000      -1.07836000      -1.26426000      -0.41114000      -0.15102000
H       -0.89818000       0.58655000      -1.77494000       0.93482000       0.55416000      -0.23889000
O       -0.10629000      -2.21184000      -0.43609000      -1.39186000       0.08532000       0.36654000
C        1.39858000      -1.36586000      -1.85117000       0.45776000      -1.89237000      -0.19341000
H        1.80786000      -1.95944000      -0.97276000       1.50406000       1.27472000      -1.48718000
H        1.77573000      -0.42457000      -2.22120000       0.80079000      -0.12589000       0.10220000
H        1.36131000      -2.18458000      -2.64485000      -0.30639000       1.38762000       0.81493000
22
Lattice="100.0 0.0 0.0 0.0 100.0 0.0 0.0 0.0 100.0" Properties=species:S:1:pos:R:3:forces:R:3 config_type=vacuum energy=-11581.22340261 pbc="T T T"
C        0.06009000       1.93940000       1.10225000      -0.05772000       0.97560000      -0.85286000
C       -0.68745000       1.16120000       2.08264000      -1.60730000      -1.12654000       2.01696000
C       -0.11588000      -0.05644000       2.22434000      -0.08461000       0.55762000      -0.53309000
H       -1.59979000       1.50257000       2.66545000       1.26055000      -0.39875000      -1.10495000
C        1.11510000      -0.08781000       1.39268000      -0.71140000      -2.06198000       2.03812000
H       -0.50992000      -0.90065000       2.76739000       0.06193000       0.07366000       0.15247000
C        1.28737000       1.08442000       0.85343000      -1.58394000       1.58558000      -0.79023000
H        1.72918000      -0.97866000       1.35337000       0.07321000       0.26988000      -0.22089000
H        1.99765000       1.34252000       0.15239000       1.56064000       0.61849000      -1.18377000
H        0.21563000       2.98774000       1.39221000       0.23746000      -0.26565000      -0.05195000
H       -0.60821000       1.95946000       0.18250000       0.94383000       0.07139000       0.76526000
C       -0.91911000      -0.30198000      -1.20611000       2.58265000      -0.11558000      -1.35544000
C       -2.06297000      -0.34529000      -0.62065000      -2.40381000       1.04972000       0.34111000
H       -2.81398000       0.44595000      -0.76637000       0.56602000      -0.23174000       0.32085000
H       -2.37684000      -1.17118000      -0.05654000      -0.30184000      -1.11475000       0.66726000
C        0.07142000      -1.43559000      -1.29119000      -0.67763000      -0.99146000       1.42087000
H       -0.61700000       0.56402000      -1.77503000      -0.09266000       0.14845000      -0.21812000
O        0.14165000      -2.32620000      -0.44998000      -0.19727000       1.03158000      -1.08942000
C        0.92767000      -1.37652000      -2.51076000       0.49800000       0.29062000      -0.15676000
H        1.63805000      -0.56802000      -2.30894000      -0.01465000       0.14383000      -0.16252000
H        0.32055000      -1.05574000      -3.37880000       0.45675000      -0.40528000       0.30060000
H        1.54210000      -2.27719000      -2.64454000      -0.57593000       0.19620000      -0.16777000
22
Lattice="100.0 0.0 0.0 0.0 100.0 0.0 0.0 0.0 100.0" Properties=species:S:1:pos:R:3:forces:R:3 config_type=vacuum energy=-11580.93984791 pbc="T T T"
C        0.74328000       1.89110000       1.36103000       0.83114000      -0.06996000       0.27756000
C       -0.51616000       1.92788000       2.13917000      -0.14819000      -2.45441000       0.58943000
C       -0.91242000       0.67396000       2.53421000       2.00630000       0.60548000      -1.76542000
H       -0.92536000       2.85193000       2.35136000      -1.20221000       1.50768000       0.59173000
C        0.13215000      -0.27099000       1.94986000      -0.71759000       0.43047000       1.17357000
H       -1.79984000       0.33760000       3.04183000       0.01286000       0.23055000       0.21821000
C        1.02525000       0.43396000       1.26375000       1.34201000      -0.57361000      -0.99780000
H        0.23532000      -1.32261000       2.18450000      -0.33420000       0.00334000      -0.24923000
H        1.89039000       0.01167000       0.69621000      -0.83930000       0.43667000       0.73228000
H        1.58917000       2.36282000       1.93945000      -0.77648000      -0.23631000      -0.52827000
H        0.65492000       2.41909000       0.40740000       0.09403000      -0.07620000       0.03496000
C       -0.25342000      -0.21995000      -1.62697000      -0.93702000       0.19332000       0.60836000
C       -1.42197000       0.17668000      -1.08955000       0.27067000      -0.38651000       0.03998000
H       -1.86048000       1.18336000      -1.24368000       0.59823000      -0.73349000       0.52238000
H       -1.93739000      -0.57700000      -0.44391000       0.02978000       0.76843000      -1.07306000
C        0.09066000      -1.65937000      -1.63717000      -1.32694000      -3.22458000       1.11684000
H        0.52061000       0.45572000      -1.96850000      -0.38077000       0.13268000      -0.57813000
O       -0.65730000      -2.57394000      -1.22713000       1.04006000       2.37052000      -0.74781000
C        1.47962000      -2.03102000      -2.07576000      -0.42450000       1.34196000      -0.15049000
H        1.98035000      -1.63293000      -1.18036000       0.84575000      -0.36175000      -0.50331000
H        1.71977000      -1.42174000      -2.95280000       0.42369000      -0.05063000       0.25754000
H        1.65473000      -3.08094000      -2.29308000      -0.15737000       0.08914000       0.34350000
22
Lattice="100.0 0.0 0.0 0.0 100.0 0.0 0.0 0.0 100.0" Properties=species:S:1:pos:R:3:forces:R:3 config_type=vacuum energy=-11580.65292032 pbc="T T T"
C       -0.12122000       1.80949000       0.92667000      -0.77842000      -0.05935000       0.20285000
C       -0.90615000       0.73556000       1.72702000       1.16711000       0.43448000       0.29947000
C        0.02709000      -0.25343000       2.06569000       0.41484000       0.66362000      -0.38462000
H       -1.72308000       0.99826000       2.38981000      -0.10405000      -0.03756000      -0.30956000
C        1.15098000      -0.08146000       1.23455000       0.34591000      -0.08460000       0.41085000
H       -0.07981000      -1.05681000       2.78651000      -0.16898000       0.18595000      -0.21472000
C        0.97886000       0.98390000       0.37161000       0.03378000      -1.12604000       0.49751000
H        2.03038000      -0.70490000       1.22403000      -0.16394000      -0.31117000      -0.07892000
H        1.69857000       1.15966000      -0.40486000       0.04196000       0.75828000      -0.02716000
H        0.27467000       2.54692000       1.64171000       0.00265000      -0.19828000      -0.12303000
H       -0.72601000       2.32082000       0.18231000       0.09101000       0.17170000       0.13051000
C       -0.65436000      -0.05227000      -0.90724000      -0.47800000       0.24352000      -1.18267000
C       -1.73692000      -0.02608000      -0.06845000      -0.29087000       0.07156000       1.43423000
H       -2.36913000       0.86120000      -0.02624000      -0.19289000      -0.63797000      -0.48710000
H       -2.06668000      -0.92489000       0.46425000       0.00555000       0.39638000      -0.62079000
C        0.06286000      -1.27032000      -1.15483000       0.37072000      -3.07543000       0.34759000
H       -0.61539000       0.63774000      -1.72737000       0.25646000       0.68741000       0.00517000
O       -0.07769000      -2.25378000      -0.41567000       0.09020000       1.07645000      -0.56317000
C        1.05821000      -1.38682000      -2.32747000       0.01604000       1.50931000       1.26547000
H        1.65845000      -0.46976000      -2.20968000       0.20625000      -0.29954000      -0.27390000
H        0.58620000      -1.28051000      -3.30014000      -0.18200000      -0.37040000      -0.03537000
H        1.71521000      -2.25052000      -2.18811000      -0.47512000       0.12571000      -0.26815000
22
Lattice="100.0 0.0 0.0 0.0 100.0 0.0 0.0 0.0 100.0" Properties=species:S:1:pos:R:3:forces:R:3 config_type=vacuum energy=-11580.93984791 pbc="T T T"
C        0.74328000       1.89110000       1.36103000       0.83114000      -0.06996000       0.27756000
C       -0.51616000       1.92788000       2.13917000      -0.14819000      -2.45441000       0.58943000
C       -0.91242000       0.67396000       2.53421000       2.00630000       0.60548000      -1.76542000
H       -0.92536000       2.85193000       2.35136000      -1.20221000       1.50768000       0.59173000
C        0.13215000      -0.27099000       1.94986000      -0.71759000       0.43047000       1.17357000
H       -1.79984000       0.33760000       3.04183000       0.01286000       0.23055000       0.21821000
C        1.02525000       0.43396000       1.26375000       1.34201000      -0.57361000      -0.99780000
H        0.23532000      -1.32261000       2.18450000      -0.33420000       0.00334000      -0.24923000
H        1.89039000       0.01167000       0.69621000      -0.83930000       0.43667000       0.73228000
H        1.58917000       2.36282000       1.93945000      -0.77648000      -0.23631000      -0.52827000
H        0.65492000       2.41909000       0.40740000       0.09403000      -0.07620000       0.03496000
C       -0.25342000      -0.21995000      -1.62697000      -0.93702000       0.19332000       0.60836000
C       -1.42197000       0.17668000      -1.08955000       0.27067000      -0.38651000       0.03998000
H       -1.86048000       1.18336000      -1.24368000       0.59823000      -0.73349000       0.52238000
H       -1.93739000      -0.57700000      -0.44391000       0.02978000       0.76843000      -1.07306000
C        0.09066000      -1.65937000      -1.63717000      -1.32694000      -3.22458000       1.11684000
H        0.52061000       0.45572000      -1.96850000      -0.38077000       0.13268000      -0.57813000
O       -0.65730000      -2.57394000      -1.22713000       1.04006000       2.37052000      -0.74781000
C        1.47962000      -2.03102000      -2.07576000      -0.42450000       1.34196000      -0.15049000
H        1.98035000      -1.63293000      -1.18036000       0.84575000      -0.36175000      -0.50331000
H        1.71977000      -1.42174000      -2.95280000       0.42369000      -0.05063000       0.25754000
H        1.65473000      -3.08094000      -2.29308000      -0.15737000       0.08914000       0.34350000
22
Lattice="100.0 0.0 0.0 0.0 100.0 0.0 0.0 0.0 100.0" Properties=species:S:1:pos:R:3:forces:R:3 config_type=vacuum energy=-11580.96962618 pbc="T T T"
C       -0.01620000       2.12785000       1.15660000       0.78813000       0.50080000      -1.62289000
C       -0.68734000       1.20584000       2.09703000      -1.83889000       0.48515000       0.78633000
C        0.15277000       0.27709000       2.50432000       0.78996000       0.01271000      -0.85504000
H       -1.70081000       1.23591000       2.53346000       0.65364000       0.67804000      -0.46395000
C        1.36620000       0.34925000       1.65692000       0.45824000      -1.24264000       1.61549000
H       -0.09887000      -0.38146000       3.29432000       0.21125000      -0.81699000       0.40607000
C        1.25695000       1.34409000       0.78298000      -1.63154000       0.08322000       1.78587000
H        2.20276000      -0.31874000       1.90729000      -0.30272000       0.33821000      -0.81402000
H        1.91136000       1.56282000       0.01557000       1.27394000       0.78252000      -1.23664000
H        0.32460000       3.01237000       1.75225000      -0.24174000      -0.46509000      -0.44593000
H       -0.51676000       2.52326000       0.24728000      -0.18441000      -0.34877000       0.76903000
C       -1.16694000      -0.66875000      -1.26130000      -1.75905000       1.74950000      -0.94176000
C       -2.10591000      -0.95792000      -0.35253000       2.50796000      -0.71349000      -0.10839000
H       -2.83474000      -0.26949000      -0.06209000      -1.17377000       0.80958000       0.14774000
H       -1.91419000      -1.82108000       0.25693000      -0.43313000      -0.40075000       0.15991000
C       -0.04473000      -1.59439000      -1.59388000      -0.59715000      -0.99900000       1.19290000
H       -1.39028000       0.28464000      -1.82269000       0.96949000      -1.07445000       0.36546000
O       -0.10191000      -2.71269000      -1.10594000       0.48928000       0.51569000      -0.73567000
C        1.14969000      -1.08447000      -2.33257000      -0.40197000       1.91527000       0.52111000
H        1.73435000      -0.55400000      -1.55016000      -0.32759000       0.00516000      -0.50302000
H        0.87398000      -0.35531000      -3.11631000       0.18854000      -0.33789000       0.45305000
H        1.78935000      -1.82160000      -2.71334000       0.54051000      -1.29292000      -0.61197000
