121
Lattice="100.0 0.0 0.0 0.0 100.0 0.0 0.0 0.0 100.0" Properties=species:S:1:pos:R:3:forces:R:3 config_type=reactants_in_water energy=-80255.93293524 pbc="T T T"
C        5.61258000       6.49065000       7.26541000       1.07627000       0.47792000      -1.47350000
C        4.69562000       5.44156000       7.92822000       1.49466000      -0.89807000      -0.03568000
C        5.83326000       4.28939000       8.07768000      -0.74574000       1.38248000      -1.93993000
H        4.20294000       5.67024000       8.89762000       0.14087000       0.10702000      -0.92650000
C        6.64135000       4.37057000       7.00323000      -2.16987000       0.12445000       0.31084000
H        5.87317000       3.44037000       8.70417000      -0.29461000      -0.50269000       1.04195000
C        6.06957000       5.48675000       6.09946000       0.92260000      -1.14327000       1.08031000
H        7.34060000       3.59321000       6.73175000       0.19664000       0.23238000      -0.14749000
H        6.79690000       5.65100000       5.31761000      -0.02427000       1.17890000      -0.01533000
H        6.44611000       6.84702000       7.93077000      -0.70984000      -0.53020000      -0.83031000
H        5.19580000       7.37390000       6.73469000      -0.48645000      -0.43641000       0.78279000
C        4.67788000       5.00940000       5.50244000       0.00907000       1.24687000      -1.04185000
C        3.75995000       5.11125000       6.69410000      -0.22744000      -2.05819000       2.05351000
H        2.89859000       5.77917000       6.75533000       0.31085000       0.09556000      -0.76867000
H        3.37324000       4.07947000       6.81427000      -0.13935000       0.71768000       0.26138000
C        4.66409000       3.62960000       4.79728000      -0.92963000       0.13606000       0.33773000
H        4.38567000       5.71651000       4.64861000       0.40592000      -0.74499000       1.27018000
O        4.05846000       2.64886000       5.19395000       0.47187000       0.52430000       0.51056000
C        5.20440000       3.59955000       3.41948000       1.61643000       0.94958000      -0.20902000
H        5.46004000       4.61166000       3.06433000       0.00554000      -0.50850000      -0.03058000
H        4.50297000       3.11055000       2.80303000      -1.08820000      -0.28252000      -0.80796000
H        6.07455000       2.96364000       3.30663000       0.40560000      -0.02747000       0.31961000
O        2.24196000       2.34023000       2.56162000       0.16585000      -0.19423000      -0.23602000
H        2.04023000       2.89334000       3.31726000      -0.07496000       0.04230000       0.65134000
H        1.80484000       2.84265000       1.87715000      -0.03375000      -0.05750000      -0.53920000
O        1.63713000       9.99784000      11.60105000      -0.81958000      -2.37573000       0.50900000
H        1.72747000      10.87237000      11.34289000       0.17230000       2.59322000      -0.82899000
H        2.41366000       9.81077000      12.10792000       0.67853000      -0.24182000       0.41859000
O        2.39738000       1.81450000       9.25741000       0.93395000       1.34162000      -0.48257000
H        3.14937000       1.98143000       9.84429000      -0.39751000      -0.22186000      -0.20555000
H        1.88259000       1.12185000       9.61448000      -0.66770000      -1.06111000       0.76961000
O       -0.18752000       0.94953000       1.85468000       1.22788000       0.69591000       1.24663000
H        0.50908000       1.21064000       2.53473000      -1.00416000      -0.39456000      -1.35910000
H       -0.67184000       0.22646000       2.24628000      -0.21565000      -0.22324000       0.07265000
O       11.11165000       2.46778000       3.58257000      -0.90999000      -0.16619000      -0.60517000
H       10.55418000       2.76310000       2.83560000       0.43384000      -0.42320000       0.52447000
H       11.26193000       3.26386000       4.07976000       0.20517000       0.55033000       0.41916000
O        2.15826000      -3.46964000      -0.97569000      -1.35458000       0.65293000       0.22969000
H        1.22781000      -3.18800000      -1.19029000       1.62921000      -0.66031000       0.08415000
H        2.47170000      -4.07665000      -1.64472000      -0.28408000      -0.04834000      -0.28093000
O        4.29278000       8.19673000       3.93719000       0.82199000       0.14795000       0.31343000
H        4.04518000       8.38385000       4.86636000       0.47730000      -0.13652000      -0.57551000
H        5.28063000       8.19318000       3.86109000      -1.49206000       0.01943000       0.45312000
O       12.75330000       7.78604000       8.94522000       0.11910000       0.07095000       0.07000000
H       12.26522000       7.90989000       8.13233000      -0.07367000       0.09433000      -0.28583000
H       12.17347000       7.23083000       9.46440000      -0.16063000      -0.20432000       0.28374000
O        6.14682000       9.96903000      11.98839000      -0.00765000       0.32058000      -1.06351000
H        6.52588000       9.45408000      12.69856000       0.46462000      -0.19343000      -0.23418000
H        6.72233000       9.94842000      11.19173000      -0.38674000      -0.34653000       1.22011000
O       11.12480000       5.12906000      15.46365000       0.49100000      -0.51280000      -0.70724000
H       10.19751000       5.31538000      15.38198000      -0.51264000       0.17757000       0.17479000
H       11.45460000       5.58777000      16.22461000       0.05260000       0.36458000       0.52984000
O        0.65118000       4.28365000       3.83433000       0.64051000       0.23212000      -1.83108000
H        0.15239000       3.83422000       4.47194000      -1.37921000      -1.37661000       1.27107000
H        1.09583000       4.93372000       4.33700000       0.82868000       1.26868000       0.78465000
O        2.51884000       9.54940000       5.94644000      -1.65011000      -0.83752000      -0.82020000
H        1.77955000       9.17483000       6.48624000       1.02786000       0.46939000      -0.41293000
H        2.11423000       9.58389000       5.03913000       0.63220000       0.06615000       1.20215000
O        9.50027000       1.42007000       5.96247000       1.24958000       0.39524000      -1.19438000
H       10.02133000       1.58344000       5.11837000      -0.90550000      -0.24964000       1.16446000
H       10.19332000       1.31351000       6.62534000      -0.15539000      -0.20911000      -0.19010000
O        8.95526000       5.91070000       4.62641000       1.02558000       0.32183000      -1.27560000
H        9.35610000       6.77847000       4.90096000      -0.37497000      -1.43040000      -0.86152000
H        9.30735000       5.62538000       3.72193000      -0.53145000       1.11416000       2.08853000
O        9.29926000      12.81825000       2.68836000      -0.05383000      -1.61012000       0.91009000
H        8.47618000      12.30338000       2.74139000       0.58242000       0.68537000      -0.00156000
H        9.07191000      13.55406000       2.15216000      -0.33302000       0.94472000      -0.80069000
O        0.01146000       4.17744000       0.76893000      -0.33259000       2.34050000       0.78937000
H        0.53454000       4.43080000       1.54754000      -0.44792000      -0.40368000      -0.30932000
H        0.31739000       3.36852000       0.43828000       0.62819000      -1.83125000      -0.56599000
O        4.92620000       4.70296000      -1.74176000      -1.48798000      -0.34630000       0.49731000
H        4.99019000       5.32847000      -2.44124000       0.14132000       0.67267000      -0.78861000
H        5.79493000       4.49493000      -1.46475000       1.30680000      -0.30514000       0.33024000
O       10.56868000       8.92640000       1.66751000       1.15799000       0.72615000       0.46150000
H        9.62067000       8.87703000       1.58645000      -0.58207000       0.39711000      -0.22258000
H       10.81999000       9.85339000       1.88492000      -0.54860000      -1.01570000      -0.29346000
O        0.77569000       4.35247000       7.30695000      -0.84467000       1.50479000      -0.49783000
H        1.02637000       3.60794000       6.79344000       0.40529000      -1.24336000      -0.35955000
H        0.94915000       4.15563000       8.21256000       0.31926000      -0.50551000       0.82088000
O       10.13458000       1.38831000       9.36993000      -1.18698000       0.71906000      -0.27819000
H        9.50418000       1.96853000       9.86696000       1.04018000      -0.57831000       0.00577000
H        9.98584000       1.72608000       8.47724000       0.10293000      -0.12587000       0.12977000
O        7.89710000       9.17243000       0.19962000       0.50516000      -2.20602000      -1.57763000
H        8.16257000       9.73084000      -0.54394000      -0.04156000       0.40800000       0.36576000
H        8.00877000       8.26630000      -0.25519000      -0.41495000       1.86853000       1.29809000
O        6.91503000       0.93735000       7.03125000       2.42220000      -0.60791000       0.81684000
H        6.21603000       1.19296000       6.49283000      -2.21344000       0.75820000      -1.30486000
H        7.70257000       1.05421000       6.46130000      -0.23139000      -0.16051000       0.43573000
O        9.65196000       8.12968000      10.94377000      -0.49179000      -0.93519000       0.44050000
H       10.14862000       8.91776000      10.82811000       0.71217000       1.17108000      -0.47871000
H        9.90316000       7.86751000      11.83450000      -0.10239000      -0.29220000       0.01765000
O        6.58160000       0.62657000       1.28519000       0.72926000       0.76245000      -0.47311000
H        5.91814000       0.31436000       1.87583000      -0.81379000      -0.35377000       0.65712000
H        6.93898000      -0.14534000       0.85728000       0.12817000      -0.35918000      -0.18640000
O       -1.76020000      11.30044000       1.41409000       0.51549000      -0.43161000       0.37723000
H       -1.70731000      10.35714000       1.66707000       0.15184000       0.67871000      -0.10998000
H       -1.10104000      11.74780000       1.97134000      -0.41877000      -0.36072000      -0.31035000
O        6.54121000       1.11717000      10.04603000       0.65265000      -0.80390000      -0.36483000
H        7.21635000       0.78253000       9.40940000      -0.77461000       0.51402000       0.34615000
H        5.88775000       0.40259000      10.06028000       0.26550000       0.29316000      -0.01113000
O       -0.26738000       8.39651000       2.44005000       1.08749000       0.87349000       0.87532000
H       -0.32602000       7.62072000       1.89172000       0.23606000      -0.45678000      -0.24464000
H        0.66713000       8.50131000       2.75786000      -1.41492000      -0.46931000      -0.77185000
O        7.01457000      11.90812000       1.26015000      -1.20923000      -1.76702000      -0.00623000
H        6.20589000      11.49890000       0.83685000       1.24325000       0.90928000       0.53058000
H        7.29379000      11.15156000       1.82123000      -0.12438000       0.55616000      -0.67886000
O        9.05837000       2.73839000      11.57351000      -1.05645000       0.47700000       0.66293000
H        8.17228000       2.31193000      11.53429000       0.67329000       0.44272000       0.19306000
H        8.96745000       3.54905000      12.13036000       0.01484000      -1.13763000      -0.81445000
O       11.74577000       6.80307000      -0.08739000      -1.45824000       0.45421000       1.26598000
H       11.58366000       7.62782000       0.45628000       0.25859000      -1.11339000      -0.76307000
H       10.95556000       6.25815000       0.14385000       1.08551000       0.55933000      -0.33487000
O        3.33849000      12.29105000       6.10174000      -0.50035000       0.35220000       0.15651000
H        3.20830000      11.34656000       6.18810000      -0.27807000      -0.42816000       0.09662000
H        4.13923000      12.37628000       5.60976000       0.76250000       0.21744000      -0.48499000
O        0.73132000       1.42268000       5.28666000      -1.00695000       0.20316000      -0.21075000
H        0.26988000       0.70555000       4.85749000      -0.77825000       0.00239000      -0.22975000
H        1.54997000       0.99167000       5.43360000       1.77601000      -0.13732000       0.49613000
O        4.11556000      17.06051000       8.81628000      -0.63771000       0.12657000       0.47023000
H        4.63566000      16.39142000       9.26789000       0.29408000       0.19668000      -0.42305000
H        4.58103000      17.44811000       8.07675000       0.45105000      -0.27432000       0.05666000
115
Lattice="100.0 0.0 0.0 0.0 100.0 0.0 0.0 0.0 100.0" Properties=species:S:1:pos:R:3:forces:R:3 config_type=reactants_in_water energy=-76094.48208563 pbc="T T T"
C        6.09295000       7.08904000       7.69972000      -0.63449000      -0.74589000       0.32854000
C        5.37354000       5.88990000       8.25776000      -0.65594000       2.70898000       0.30133000
C        6.19483000       4.88833000       8.29381000       0.76246000      -2.13032000       0.67325000
H        4.32524000       5.93477000       8.47706000      -0.19223000      -0.30908000       0.40389000
C        7.49048000       5.27886000       7.74113000      -0.06684000      -1.36611000       0.35235000
H        5.88666000       3.94267000       8.69218000       0.27664000      -0.43178000      -0.28191000
C        7.45401000       6.54608000       7.42498000       0.13120000       2.20845000      -1.08063000
H        8.33874000       4.66059000       7.55174000       0.21504000      -0.26683000       0.22721000
H        8.26528000       7.08721000       6.95165000      -0.15969000       0.00748000       0.15774000
H        6.00173000       7.96113000       8.32011000       0.16768000       0.42700000       0.49183000
H        5.46893000       7.31165000       6.86399000       0.11771000       0.54951000      -1.40459000
C        5.67473000       3.97746000       4.99928000       0.15088000      -0.53207000       0.24251000
C        4.86164000       3.66676000       5.98161000      -1.16236000       0.26537000       0.79831000
H        4.32706000       4.48675000       6.43293000      -0.49376000      -0.17558000       0.01767000
H        4.71388000       2.67178000       6.40444000       0.44246000       0.26185000      -0.12588000
C        6.56168000       2.89637000       4.48770000      -0.39113000       1.24472000      -1.84972000
H        5.65822000       4.98277000       4.57061000       0.47354000      -0.38954000       0.16885000
O        6.58069000       1.76914000       4.91026000       0.23226000      -0.25996000       0.32793000
C        7.31166000       3.39559000       3.28447000       0.04129000      -1.84274000      -0.64790000
H        6.67483000       3.94103000       2.57921000      -0.03671000      -0.48759000       0.01490000
H        7.91711000       2.60679000       2.80283000      -0.54565000       0.39584000       0.09008000
H        7.96879000       4.13453000       3.61106000       1.31638000       1.37343000       0.80530000
O        9.79297000       0.09158000       5.23061000       0.65253000      -0.25088000       1.43084000
H        9.08253000       0.21540000       4.62406000      -0.40451000       0.38990000      -0.92114000
H       10.60386000       0.50621000       4.91065000      -0.47075000       0.05611000      -0.46470000
O        3.50148000      13.62540000       4.94346000      -1.07781000      -2.20362000       0.43845000
H        3.47091000      12.61992000       5.13165000       0.72051000       2.61666000      -0.53172000
H        4.40033000      13.92135000       4.83814000       0.47717000      -0.40873000       0.05785000
O       -0.86711000       4.75685000       2.74276000       2.03858000      -0.91137000       0.79332000
H        0.02007000       4.47186000       2.41594000      -0.76240000       0.02331000       0.67338000
H       -1.13136000       5.25771000       2.00319000      -1.06204000       1.11667000      -1.34895000
O        7.24940000       3.50374000       0.15568000       0.56092000       1.93092000       0.12510000
H        7.40365000       4.49466000       0.10488000      -0.59947000      -1.57370000       0.27285000
H        6.80365000       3.28426000      -0.66186000      -0.10014000      -0.21266000      -0.15716000
O       -1.98300000       2.14870000       1.73016000       1.58420000       0.54318000       1.81079000
H       -1.59674000       2.71480000       2.47449000      -0.95136000      -1.05675000      -1.62112000
H       -2.61351000       2.71056000       1.30939000      -0.63869000       0.59375000      -0.36479000
O        8.40735000       2.15477000       7.49952000       0.42471000      -1.01180000       0.70791000
H        8.74716000       1.29381000       7.13166000      -0.42455000       1.56506000      -0.28152000
H        8.24058000       2.82860000       6.83155000       0.12025000      -0.78422000      -0.36220000
O        3.83302000      10.25475000       8.56456000      -0.70009000      -0.07695000       0.38637000
H        3.40406000       9.54926000       9.07397000      -0.06632000       0.04100000      -0.04287000
H        3.12095000      10.91823000       8.52309000       0.58508000      -0.19542000      -0.08605000
O       10.23828000       4.12042000       1.65350000      -1.01933000      -1.27557000      -1.04381000
H        9.90831000       4.84289000       2.17635000      -0.29975000       0.41299000       0.29088000
H        9.43306000       3.66726000       1.26785000       1.26387000       0.73894000       0.61556000
O        0.29044000       7.49831000       4.25661000      -0.57973000      -2.73835000      -0.93600000
H       -0.35191000       8.07127000       4.65462000      -0.55673000       0.35762000       0.33040000
H       -0.18500000       6.61946000       4.03021000       0.87617000       2.20363000       0.62064000
O        4.41086000       5.09055000       1.03508000      -0.01477000      -0.51834000       0.79701000
H        4.19435000       5.02902000       1.98069000      -0.13616000       0.44421000      -0.39510000
H        4.58364000       4.14987000       0.89711000       0.08878000       0.13700000      -0.58151000
O        6.56500000      10.11128000      10.17438000       0.46959000      -0.67126000      -0.90787000
H        5.63752000       9.95589000       9.97824000      -0.29539000       0.30658000       0.00273000
H        7.00806000       9.63349000       9.44297000      -0.19818000       0.49607000       0.72977000
O        2.57482000       4.19207000       8.91590000      -0.34065000      -1.97128000      -0.41669000
H        2.38537000       3.28815000       8.51576000       0.40380000       1.41710000       0.73304000
H        1.95004000       4.20649000       9.65366000       0.05936000       0.28309000      -0.17661000
O        5.18407000      10.67825000       6.03970000      -3.30391000      -1.99658000       0.03783000
H        4.77623000      10.12706000       6.78120000       0.82508000       1.37168000      -1.18269000
H        6.00673000      10.96709000       6.32049000       2.30949000       0.76467000       1.07044000
O       13.13182000       5.32759000       5.85039000       1.28077000       0.11611000       0.38204000
H       12.38539000       5.68243000       6.35935000       0.62747000       0.31253000       0.03650000
H       13.99603000       5.66431000       6.22645000      -1.99179000      -0.40082000      -0.38965000
O        5.70505000       1.08818000       1.16825000      -1.35038000       0.20038000      -0.05015000
H        6.34287000       0.60017000       1.67515000       0.41239000      -0.34314000       0.35414000
H        4.82891000       0.78410000       1.48934000       0.84496000       0.23059000      -0.22232000
O        4.14986000      -0.47455000       9.62129000      -1.93549000       0.68791000      -2.72761000
H        4.85885000      -0.02800000       9.17355000       0.67976000       0.22762000      -0.29977000
H        4.39364000      -0.76664000      10.44622000       1.13059000      -0.97222000       2.72458000
O        7.48999000       6.45121000       1.10100000      -0.84327000       0.32058000       0.14004000
H        6.78425000       7.11926000       0.97399000       0.55070000      -0.74681000       0.05609000
H        8.16356000       6.66254000       0.46441000       0.47428000       0.38877000      -0.34326000
O        2.17693000      10.76606000      -1.75866000       1.85997000      -0.81233000       1.56042000
H        2.13511000      10.67001000      -2.67685000      -0.15243000      -0.12293000      -2.07897000
H        1.45381000      11.27378000      -1.49323000      -1.70736000       1.23620000       0.52370000
O        0.28438000       5.90465000       8.83216000      -0.46727000       1.48457000      -0.33741000
H        0.71040000       5.58674000       8.02033000       0.11915000      -0.54044000       0.03217000
H       -0.00692000       6.80253000       8.55492000       0.25709000      -0.78353000       0.38652000
O       11.54367000       1.59528000       2.51289000      -0.17432000       1.90485000      -0.08588000
H       12.41331000       1.31315000       2.23185000       0.19378000      -0.06179000      -0.07218000
H       11.51725000       2.59171000       2.33377000      -0.16354000      -1.91309000       0.29330000
O        3.72211000       2.85653000       2.76818000       0.12665000       0.14046000       0.58659000
H        4.68029000       2.87373000       2.69128000       0.26098000      -0.33785000      -0.44305000
H        3.64212000       2.99035000       3.72258000      -0.30809000      -0.08241000      -0.08742000
O       -0.24091000      10.10525000       3.10473000      -0.25219000       0.65974000       0.16307000
H       -0.15696000       9.22578000       2.75226000       0.33855000      -0.47358000      -0.24902000
H        0.16925000      10.70853000       2.47818000       0.00887000      -0.18695000       0.05796000
O       10.13016000       4.37246000       9.24006000       0.13876000      -1.50664000      -1.39569000
H       10.19070000       3.69582000       8.50184000       0.14772000       1.17052000       1.17593000
H        9.36093000       4.02233000       9.70145000      -0.02480000       0.24779000       0.25184000
O        5.66596000       1.64999000       8.48762000       0.70134000      -0.10834000       0.79088000
H        5.51267000       1.76485000       9.44594000       0.14216000       0.14198000      -0.73530000
H        6.64557000       1.72578000       8.35392000      -0.83446000      -0.00835000      -0.06566000
O        9.31381000      14.99733000       5.94375000      -0.81229000      -0.55287000      -1.37685000
H        9.71125000      15.23521000       6.75329000       0.70114000       0.43762000       1.39478000
H        8.74656000      14.24443000       6.14678000       0.11200000       0.18351000      -0.05032000
O        1.36367000       4.45659000       6.42421000       0.04272000      -0.28402000       0.69332000
H        1.34943000       4.85974000       5.55710000       0.53704000      -0.04454000      -0.15869000
H        2.22779000       4.06612000       6.67401000      -0.83669000       0.76063000      -0.77619000
O       11.11227000       6.91735000       7.55821000       0.63078000      -0.59378000      -0.67851000
H       10.95471000       6.32826000       8.29832000      -0.48560000       0.19337000       0.41735000
H       10.70545000       7.77083000       7.66982000      -0.25148000       0.06547000       0.49764000
O        2.11267000       8.07571000       9.68149000       1.27404000      -2.71013000      -0.81856000
H        1.51045000       7.37609000      10.02941000       0.30700000       0.87118000      -0.20925000
H        2.77351000       7.44334000       9.22307000      -1.46535000       1.60542000       0.92573000
O       13.83678000       8.12205000      -0.60020000      -0.08099000      -0.29385000      -1.25283000
H       13.95190000       7.60535000      -1.43270000      -0.03001000       0.51454000       1.18895000
H       14.27738000       7.63434000       0.09264000       0.17612000      -0.29858000       0.07544000
O       -2.66607000       7.64594000       9.40474000      -0.16645000       1.14357000       1.16124000
H       -1.99441000       6.98996000       9.40342000       0.77736000      -1.05547000       0.02623000
H       -3.18290000       7.50182000       8.63944000      -0.81934000      -0.28270000      -1.15352000
O        1.80637000       0.97278000       7.30163000       0.36950000      -0.28543000      -0.53146000
H        1.90828000       0.71129000       6.35481000       0.01551000       0.04683000       1.44844000
H        2.22940000       0.30176000       7.87512000      -0.16116000       0.37382000      -0.71115000
121
Lattice="100.0 0.0 0.0 0.0 100.0 0.0 0.0 0.0 100.0" Properties=species:S:1:pos:R:3:forces:R:3 config_type=reactants_in_water energy=-80255.97089294 pbc="T T T"
C        6.11086000       7.11227000       6.10051000       1.30192000       0.34052000      -0.61658000
C        5.36455000       6.61281000       7.25934000      -0.06025000      -1.66213000       1.10295000
C        5.97272000       5.50240000       7.80934000      -1.43546000       0.68879000      -0.39012000
H        4.42064000       7.03736000       7.53130000      -0.25592000       0.17122000       0.48170000
C        7.08647000       5.13841000       6.93028000       0.75769000       1.63219000      -0.49258000
H        5.60196000       4.93366000       8.70269000       0.44672000       0.60393000      -1.09386000
C        7.25166000       6.11223000       5.98426000      -1.02526000      -0.79272000       0.37981000
H        7.81375000       4.35637000       7.05062000      -0.18722000      -0.22557000       0.18443000
H        7.97699000       6.10948000       5.18114000       0.03348000       0.18881000       0.42628000
H        6.49209000       8.13617000       6.35285000      -0.05414000      -0.63452000      -0.27816000
H        5.55986000       7.24029000       5.14082000       0.22055000      -0.19146000       0.80769000
C        4.36328000       4.52398000       3.62499000       0.38993000      -0.65341000      -0.11724000
C        3.24584000       4.52325000       4.28565000      -2.57889000       0.97969000       0.14320000
H        2.49278000       5.21663000       3.90336000      -0.20703000      -0.44447000       0.32669000
H        2.99898000       3.93923000       5.16907000       0.44774000       0.19500000      -0.14272000
C        5.45960000       3.73050000       4.19361000       1.97455000       0.56074000      -0.60941000
H        4.43948000       5.11595000       2.71842000       0.46874000      -0.09038000       0.22250000
O        5.36546000       2.99216000       5.15018000      -0.22317000      -0.05369000      -0.44613000
C        6.78531000       4.02227000       3.48794000      -0.59317000      -0.45830000      -1.70336000
H        6.85462000       5.08468000       3.17748000      -0.02497000      -0.63323000       0.30395000
H        6.86220000       3.41526000       2.53227000      -0.37486000       0.68335000       0.90974000
H        7.62236000       3.72873000       4.05873000       0.83030000      -0.10146000       0.87409000
O        3.79236000       1.09423000       2.86141000      -2.23833000      -0.47778000      -1.87207000
H        3.07406000       1.69864000       3.07720000      -0.05994000      -0.17491000      -0.09753000
H        4.45758000       1.33169000       3.43169000       2.49676000       0.80881000       2.35194000
O        1.72457000       9.81913000      10.42038000       0.81349000      -1.36431000      -0.00245000
H        1.97484000      10.63906000      10.01224000       0.15668000       0.68745000      -0.31694000
H        2.54999000       9.28964000      10.39354000      -0.76443000       0.53038000       0.24937000
O        3.02998000       1.89856000       7.75935000      -1.35412000       1.20680000       0.58904000
H        2.79677000       2.84767000       7.98816000       0.76558000      -1.69352000      -0.56110000
H        3.94364000       1.77664000       7.51241000       0.44682000       0.53008000      -0.14075000
O        2.05326000      -0.22433000       1.11007000      -2.18464000       0.67284000      -0.13918000
H        2.82840000      -0.33940000       0.60820000       1.51115000      -0.34853000      -0.35226000
H        2.08751000      -0.67898000       1.93972000       0.61233000      -0.36148000       0.41116000
O        9.86858000       2.17887000       2.93531000       0.17989000       0.42914000       1.66267000
H        9.72515000       1.91735000       2.04468000      -0.61760000      -0.35290000      -0.97560000
H        9.07531000       1.95021000       3.44579000       0.37109000       0.02530000      -0.57260000
O        4.03920000       3.27110000       0.34658000       1.49248000       1.66762000      -3.36442000
H        3.85062000       3.06178000       1.20110000      -0.99538000      -1.37551000       3.74745000
H        4.55730000       4.08997000       0.44628000      -0.38634000      -0.35116000      -0.38031000
O        3.28456000       8.44490000       4.28170000      -0.84629000       0.78459000       0.70230000
H        4.05225000       8.12330000       3.84809000       1.11710000      -0.53493000      -0.75699000
H        3.66197000       9.14432000       4.83670000      -0.27068000      -0.27153000      -0.23927000
O       10.46875000       7.62966000       7.05306000       0.31222000       3.52939000       1.93006000
H       10.25640000       7.54770000       7.99520000       0.14133000       0.26489000      -0.39716000