118
Lattice="100.0 0.0 0.0 0.0 100.0 0.0 0.0 0.0 100.0" Properties=species:S:1:pos:R:3:forces:R:3 config_type=reactants_in_water energy=-78174.43049093 pbc="T T T"
C        6.07449000       7.04678000       6.78975000      -0.72075000       0.95188000       0.03669000
C        5.35361000       5.98752000       7.59795000       1.56423000       1.36456000      -0.37381000
C        6.22573000       4.97425000       7.74526000      -1.05320000       0.37970000       0.90870000
H        4.41802000       6.25413000       8.03468000      -0.62516000      -0.62905000       0.08408000
C        7.54949000       5.33788000       7.21122000      -1.78328000      -0.78683000      -1.28876000
H        5.90136000       4.01173000       8.11009000       0.37798000       0.01230000       0.43397000
C        7.34842000       6.38264000       6.40373000       0.64942000       0.97386000       0.11157000
H        8.32824000       4.63319000       7.25253000       0.93590000      -0.24035000      -0.20468000
H        7.98703000       6.75917000       5.62082000       0.27557000       0.14542000       0.37277000
H        6.32043000       7.99195000       7.34184000      -0.18070000      -0.84906000       0.05236000
H        5.43931000       7.47361000       6.00336000       0.19733000      -0.28543000      -0.09140000
C        4.48776000       5.33122000       4.36020000      -1.45192000      -0.42763000       0.46370000
C        3.24127000       5.02105000       4.74660000       0.44741000       1.60865000      -0.76420000
H        2.71864000       5.77903000       5.31413000      -0.39710000      -0.21525000       0.05811000
H        2.69502000       4.20233000       4.30187000       0.27078000      -0.28798000       0.63314000
C        5.24368000       4.24176000       3.76562000       1.47001000       0.11965000      -0.70365000
H        4.90866000       6.31925000       4.51412000       0.26375000      -0.53857000       0.22633000
O        4.74868000       3.15460000       3.52921000      -0.29783000      -0.49551000      -0.09184000
C        6.69732000       4.52687000       3.48910000      -0.67008000       0.23508000       0.15456000
H        7.20389000       4.67222000       4.43264000       0.15523000      -0.08643000       0.34683000
H        6.74245000       5.49525000       3.00587000       0.12538000       0.12260000      -0.39665000
H        7.17042000       3.75674000       2.90637000       0.09687000      -0.22337000      -0.18481000
O        0.71602000       4.86980000       2.86779000       0.38594000      -1.97404000      -0.95158000
H        0.49612000       5.63908000       3.32186000      -0.48563000       2.16843000       0.91312000
H        0.79605000       5.07245000       1.92570000       0.08385000      -0.03069000       0.16603000
O        0.93111000       5.94648000       7.38097000      -0.31928000       2.07340000       0.84184000
H        0.13676000       6.34127000       7.01678000      -0.09390000       0.31928000      -0.04239000
H        0.90516000       5.10156000       7.00267000       0.30286000      -2.43418000      -0.98255000
O        0.69702000       3.32592000       5.37909000      -1.39364000       1.52855000      -0.99062000
H        0.40964000       3.52021000       4.44378000       0.71303000      -0.27433000       1.18671000
H        1.21563000       2.54795000       5.29965000       0.65080000      -1.15785000      -0.02350000
O        8.14533000       2.91322000       8.42194000      -1.06990000      -0.77490000      -0.55906000
H        7.23345000       2.73459000       8.70242000       0.02617000      -0.21785000      -1.05342000
H        8.51269000       2.98919000       9.26604000       1.72235000       0.32204000       1.91038000
O        6.16272000       1.21681000       7.63518000      -0.71669000       0.16424000       0.46094000
H        6.19566000       0.60951000       8.36977000      -0.21295000      -0.42347000       0.43312000
H        6.81837000       0.86145000       7.05701000       0.71047000      -0.12294000      -0.83959000
O        2.73797000       0.32629000       4.87561000      -1.37233000       1.18838000      -0.62333000
H        3.00039000       1.21402000       4.60782000      -0.20456000       0.21727000      -0.14555000
H        3.57316000      -0.01694000       5.08999000       1.74162000      -1.19181000       0.57783000
O        6.83496000      10.85221000       7.07819000       0.15344000      -1.49366000      -0.53775000
H        6.84297000      11.76308000       7.26778000       0.20979000       1.68436000       0.37514000
H        5.95146000      10.55555000       7.28451000      -0.06924000      -0.26266000       0.35714000
O        6.07479000       0.76429000       2.89891000      -1.28867000       2.02196000      -0.53553000
H        5.67761000       1.69887000       3.04320000       0.91791000      -1.76047000       0.24258000
H        5.72475000       0.61291000       2.00220000       0.36289000      -0.33263000       0.41978000
O        2.23144000       9.49926000       1.59402000      -1.08986000       0.25007000       0.92212000
H        2.07644000      10.04782000       2.38564000      -0.03809000      -0.37692000      -0.48121000
H        3.15219000       9.60503000       1.41407000       0.89402000       0.05097000      -0.62833000
O        6.46698000       9.43292000       4.03078000       0.00914000      -3.22048000      -0.88134000
H        7.12181000       8.77891000       4.37405000       0.28398000       1.26866000       0.73305000
H        6.07295000       8.67280000       3.50948000      -0.31525000       1.68940000      -0.01629000
O        3.07283000       9.74714000      11.71011000      -0.42818000       0.76598000       1.20025000
H        2.71957000       9.08357000      12.30353000       0.02147000      -0.15338000      -0.04592000
H        3.30708000       9.31000000      10.91527000       0.35399000      -0.81871000      -1.07863000
O        9.25893000       8.06556000       4.36947000       0.53582000       0.58817000       0.31020000
H        9.22780000       9.04416000       4.18097000       0.77903000      -1.66305000       1.02946000
H        9.91796000       7.82384000       5.09582000      -1.12623000       1.17405000      -1.08223000
O        9.47418000       6.85666000       9.81158000       1.02246000       0.98159000      -0.35948000
H        8.70845000       7.14526000       9.32231000      -0.56486000       0.03000000      -0.17558000
H        9.25077000       6.04169000      10.21952000      -0.45459000      -1.02886000       0.43932000
O        6.64826000       8.94501000       9.92384000       0.47133000      -2.41055000      -0.52439000
H        7.45361000       9.21738000       9.48398000       0.12376000       0.56846000       0.03158000
H        6.19100000       9.68676000      10.23000000      -0.83052000       1.83037000       0.42343000
O        4.12831000       9.83072000       7.70291000       1.56574000      -0.29412000       0.79136000
H        4.20312000      10.31523000       6.89851000      -0.66842000       0.43657000      -1.06307000
H        3.22702000       9.71343000       7.92793000      -1.27967000       0.05619000      -0.06543000
O        8.94419000       9.15813000       1.61690000       0.96317000      -1.17045000      -2.21157000
H        9.15563000       8.23172000       1.80304000       0.05395000       0.01476000      -0.22019000
H        8.57088000       9.44715000       2.40271000      -1.28912000       1.05700000       2.15789000
O       10.65260000       7.79746000       6.99183000       0.74228000       0.77124000       0.03674000
H       10.30716000       7.09975000       7.54001000      -0.23756000      -0.39101000       0.45723000
H       11.27606000       8.28832000       7.56197000      -0.63022000      -0.37561000      -0.47512000
O        6.29594000      -1.98624000      10.04737000      -0.14622000       1.08693000       0.77732000
H        6.56964000      -2.88838000      10.12653000       0.21119000      -0.85958000      -0.14349000
H        6.38783000      -1.64314000      10.95471000      -0.12884000      -0.11198000      -0.61401000
O        4.99061000      10.28444000       0.78414000      -0.53690000      -1.35413000       0.83849000
H        4.71048000      10.54003000       1.66883000       0.50343000       0.03075000       0.14233000
H        5.22368000      11.09321000       0.37712000       0.38780000       1.25531000      -0.83393000
O       -1.76418000       6.48273000       9.43388000      -0.30029000      -2.48638000      -0.95327000
H       -1.07672000       5.99636000       8.93864000      -0.45438000       0.23552000       0.45364000
H       -1.39135000       7.31340000       9.57694000       0.93541000       2.14603000       0.46184000
O       10.03955000       2.58831000       0.65501000      -0.35104000       0.82356000       0.71179000
H        9.62489000       2.70147000      -0.19082000      -0.45919000       0.16478000      -0.51760000
H       10.69902000       1.93434000       0.51904000       0.85559000      -0.89214000      -0.11527000
O       10.04892000      12.05156000       8.63741000       0.07146000      -0.17486000       0.08387000
H       10.50418000      11.55348000       9.32319000      -0.16270000      -0.31240000      -0.02386000
H       10.13810000      12.95517000       8.92816000       0.00608000       0.47567000       0.03283000
O        0.08613000       0.56534000      10.30584000       0.96447000      -2.18782000      -1.03715000
H        0.91785000       0.80661000      10.68471000       0.46518000       0.46774000       0.39328000
H       -0.55710000       1.18396000      10.52272000      -1.45505000       1.80346000       0.72510000
O        0.24640000       2.09483000       2.68817000      -0.22505000       0.79658000       0.32261000
H        0.37642000       1.17978000       2.48590000       0.01371000      -0.81333000      -0.10396000
H       -0.61486000       2.17354000       3.11631000       0.14943000      -0.24367000      -0.15316000
O        6.52771000       7.57514000       0.70163000      -1.76990000       2.45034000      -1.28124000
H        7.02958000       8.41825000       0.82328000       0.11669000      -1.02799000       0.08436000
H        5.74851000       7.99154000       0.18563000       1.63588000      -1.32229000       1.27211000
O       10.47742000       3.92126000       4.77318000      -1.26855000       0.07000000       1.10668000
H       10.16517000       3.05171000       5.05098000      -0.05610000       0.21174000      -0.02158000
H       11.15297000       3.74885000       4.15620000       1.24300000      -0.25555000      -1.18977000
O        3.19736000       1.81769000       1.14801000      -1.48721000      -1.71493000      -1.24806000
H        3.80795000       2.48236000       1.32140000       1.52875000       1.91079000       0.63081000
H        3.13389000       1.30604000       1.94088000      -0.03601000      -0.30160000       0.76436000
O        9.32608000       9.59760000      10.84324000       0.51939000       0.12928000      -0.24255000
H        9.45474000       8.75390000      11.28527000      -0.06899000      -0.14905000      -0.14011000
H        8.77759000      10.12463000      11.41774000      -0.26237000       0.08494000       0.26840000
O        2.14992000       6.14480000       0.11040000      -0.53264000      -0.15904000       1.07921000
H        2.26137000       6.99381000       0.54807000       0.05396000       0.11607000      -0.11372000
H        2.54482000       6.20365000      -0.74510000       0.39836000       0.11569000      -0.72043000
O        9.07647000       5.41496000       1.35182000       0.80344000      -0.05805000      -0.12815000
H        8.91635000       5.16010000       2.25906000      -0.31258000      -0.01839000       0.41610000
H        9.95329000       5.01770000       1.21357000      -0.44574000       0.10416000      -0.24144000
O        1.90205000      10.07029000       5.06267000       0.97994000       0.73341000      -0.16252000
H        1.98695000       9.16838000       4.79269000       0.16183000      -0.91581000      -0.21686000
H        1.00558000      10.17212000       5.33374000      -1.01207000       0.17536000       0.29869000
O       12.25191000       4.73056000      12.09106000      -0.42637000       0.28037000       0.84789000
H       11.77744000       4.10175000      11.55664000       0.16080000      -0.16921000      -0.49211000
H       13.04155000       5.02412000      11.64519000       0.11305000      -0.10809000      -0.46125000
118
Lattice="100.0 0.0 0.0 0.0 100.0 0.0 0.0 0.0 100.0" Properties=species:S:1:pos:R:3:forces:R:3 config_type=reactants_in_water energy=-78168.48932348 pbc="T T T"
C        5.68346000       7.18986000       6.64891000      -0.11207000      -0.11101000      -0.12683000
C        4.87191000       6.17740000       7.41838000       0.04156000       0.21808000       0.04748000
C        5.76285000       5.17128000       7.80558000      -1.47630000      -0.36044000      -1.34382000
H        3.99704000       6.44672000       7.99201000       0.08916000      -0.09366000      -0.06907000
C        6.91477000       5.25013000       7.02144000       0.02572000       0.24358000      -0.93388000
H        5.53927000       4.37712000       8.50069000      -0.41158000      -0.01126000      -0.70590000
C        6.78320000       6.30828000       6.13985000       0.38028000      -0.16252000       0.24486000
H        7.70367000       4.51517000       7.00683000      -0.03325000       0.03786000       0.01475000
H        7.53838000       6.63622000       5.44209000      -0.02570000       0.09505000      -0.04401000
H        6.11653000       7.89680000       7.36627000      -0.08921000       0.07084000      -0.10194000
H        5.14232000       7.75235000       5.89481000       0.11557000      -0.14123000       0.11897000
C        5.10394000       5.32733000       4.80340000      -0.09315000      -0.29579000      -0.33958000
C        4.05770000       5.36098000       5.71525000       0.02828000       0.11592000      -0.17093000
H        3.29633000       6.12216000       5.61504000      -0.05441000      -0.05705000      -0.04407000
H        3.72848000       4.41837000       6.12557000       0.05975000       0.00786000      -0.02213000
C        5.82878000       4.07143000       4.59485000      -0.24015000       0.58904000       0.05295000
H        5.23046000       6.11091000       4.06977000       0.00083000       0.05640000       0.01339000
O        5.66512000       3.10913000       5.32338000       0.00950000      -0.34832000       0.13778000
C        6.80456000       4.02397000       3.44137000      -0.02757000       0.27270000      -0.08575000
H        7.47298000       4.88474000       3.46615000       0.03661000      -0.05854000       0.08052000
H        6.25537000       4.06411000       2.49931000       0.12062000       0.11950000       0.28307000
H        7.37889000       3.10320000       3.48301000      -0.01304000       0.10577000       0.00612000
O        9.77562000       7.93860000       2.34070000      -0.58766000      -2.43995000      -0.77511000
H        9.56692000       8.05554000       1.37978000       0.26924000      -0.19185000       1.62628000
H        9.18606000       7.19920000       2.63446000       0.91559000       0.96469000      -0.24698000
O        3.14409000       5.25854000       9.75050000      -0.90704000      -0.43798000      -0.09881000
H        3.41228000       4.39089000       9.35572000      -0.83130000       0.81820000       0.37194000
H        2.15416000       5.23368000       9.75500000       1.47841000      -0.26310000      -0.02883000
O        3.34314000       2.73173000       2.79149000       1.41875000       0.00275000      -0.72186000
H        3.50680000       1.84316000       2.38620000       0.15906000       1.37395000       0.36466000
H        4.14269000       3.26468000       2.55214000      -0.86041000      -1.03968000       0.61349000
O        8.13565000       8.76797000       9.02654000      -2.91626000      -1.14758000      -0.17258000
H        7.27531000       9.15498000       8.72548000       1.26051000      -0.46012000       0.20898000
H        8.28138000       7.99206000       8.42878000      -0.33236000       1.16249000       0.74651000
O        1.47134000       8.18615000       7.70633000       0.76536000      -1.54906000       0.74129000
H        1.30783000       7.46473000       8.36469000       0.27376000       1.09191000      -0.97043000
H        2.45767000       8.26119000       7.66032000      -1.20844000       0.13912000       0.34956000
O        1.43961000       5.38389000       3.21036000      -0.63083000      -0.06695000      -1.44448000
H        1.81822000       4.94819000       2.40573000      -0.58320000       0.58045000       1.33932000
H        0.53119000       5.66628000       2.93536000       1.25175000      -0.47183000       0.41095000
O        4.61933000       9.07440000       2.64247000       1.06807000       0.13455000      -2.77623000
H        4.22539000       9.90080000       2.26500000       0.53694000      -1.42860000       0.44809000
H        5.20097000       8.72493000       1.92126000      -1.04968000       0.40692000       0.84085000
O        9.59549000       1.81773000       3.32179000      -1.88627000      -0.98032000      -0.14801000
H        9.03775000       1.09131000       3.69842000       0.68140000       0.99530000      -0.33671000
H        9.05318000       2.18808000       2.58062000       0.97742000      -0.11002000       1.20322000
O        2.56656000       2.85861000       8.38744000      -0.68060000       0.62002000      -1.72277000
H        2.80400000       2.94868000       7.43030000      -0.12075000      -0.35815000       1.27627000
H        1.63203000       2.53117000       8.38150000       1.49815000       0.15880000       0.26443000
O        2.31429000       8.01558000       1.72729000      -2.01447000       1.06603000       0.51733000
H        1.52599000       8.42458000       1.28923000       0.98894000      -0.55035000       0.71136000
H        2.18405000       8.19708000       2.69201000       0.20211000      -0.04881000      -1.16944000
O        7.46171000       0.05433000       8.58636000      -1.70143000       0.46312000      -0.58874000
H        6.65527000       0.46733000       8.98596000       1.04118000      -0.48012000      -0.76223000
H        7.44553000       0.34394000       7.63954000       0.05521000      -0.28978000       1.32135000
O        1.63221000       0.59298000       9.00892000      -0.20381000      -2.32772000      -0.68335000
H        2.37773000       0.04347000       9.35942000      -1.04071000       1.08480000      -0.31591000
H        1.24352000       0.04753000       8.27953000       0.51353000       0.58192000       1.05208000
O        9.65703000       9.60250000       7.55333000       2.56230000      -0.16584000      -0.97795000
H       10.50273000       9.88432000       7.98458000      -1.08085000      -0.41930000      -0.66083000
H        9.81049000       8.65753000       7.30020000       0.06654000       1.43402000       0.16547000
O        0.95772000       2.24512000       2.10571000       0.61346000      -0.69180000      -1.12723000
H        1.40956000       1.36771000       2.18695000      -0.66976000       1.32576000      -0.08954000
H        1.62686000       2.82919000       1.66788000      -0.86582000      -1.04077000       1.00996000
O       10.75336000       3.58863000       1.88224000      -0.06410000       0.15060000      -1.83236000
H       10.77692000       2.74188000       1.36935000       0.04941000       0.90670000       0.64323000
H       10.73735000       4.29723000       1.19070000       0.11589000      -0.99309000       0.91588000
O        9.42349000       7.31664000      10.72414000      -0.61782000       0.42574000      -0.54897000
H        8.76670000       6.89827000      10.11242000       0.86128000       0.60943000       1.09368000
H        9.24969000       8.28852000      10.64770000       0.02974000      -1.69068000       0.09147000
O        9.34598000       1.76119000       9.02541000      -0.01303000       1.95380000      -0.45024000
H        9.95386000       2.45557000       8.66634000      -0.84626000      -0.79132000       0.58354000
H        8.47609000       2.22273000       9.12956000       1.27061000      -0.69955000      -0.26062000
O        3.48747000       0.54575000       4.69708000       0.75600000       0.26676000      -1.21572000
H        4.23990000       0.18489000       4.16393000      -0.98742000       0.66900000       0.88347000
H        3.40094000       1.48618000       4.39928000       0.23560000      -0.87006000       0.42392000
O        8.25740000       9.32414000       4.34689000      -0.01240000       1.39058000      -0.34307000
H        8.65190000      10.16520000       4.68979000      -0.54646000      -1.25794000      -0.42661000
H        7.95240000       9.54815000       3.43180000       0.58215000      -0.27022000       1.13661000
O        0.91530000       3.63358000       5.54554000       0.57460000      -0.85561000       1.51072000
H        0.68500000       2.73545000       5.89330000       0.34569000       1.18790000      -0.50236000
H        1.59659000       3.97690000       6.17686000      -1.05007000      -0.33790000      -0.94696000
O        7.11859000       5.18498000       9.46300000       0.82389000       0.44828000       3.73154000
H        6.51397000       5.94353000       9.66214000       0.75133000      -0.98523000      -0.04315000
H        6.97389000       4.54991000      10.20888000       0.25723000       0.93107000      -0.58972000
O        4.67041000       9.84700000       4.75658000      -0.12474000      -0.24188000       2.66099000
H        4.11518000       9.02729000       4.77677000       0.80128000       1.19181000      -0.20353000
H        5.09643000       9.88019000       5.64989000      -0.67507000      -0.11727000      -1.14837000
O        0.63239000      10.31295000       6.03172000       0.12415000       0.69106000       1.42726000
H        0.05603000      10.81108000       6.66440000       0.88869000      -0.82259000      -0.74697000
H        1.32322000       9.89286000       6.60345000      -1.24476000       0.31701000      -0.56161000
O        9.02112000       9.98756000       1.61986000       0.33328000       2.39395000      -1.95636000
H        8.86243000      10.09515000       0.64834000       0.09415000       0.23149000       1.25371000
H        9.80534000      10.56209000       1.80830000      -1.04305000      -0.85107000      -0.18606000
O        5.49181000       2.48836000       1.20458000       0.87704000       0.46732000      -1.61214000
H        5.20462000       3.19072000       0.56832000       0.43431000      -1.02034000       0.60982000
H        6.43374000       2.30338000       0.96139000      -1.24621000       0.32150000       0.27051000
O        2.10713000      10.09873000       3.45749000       0.35938000       1.54118000      -1.09679000
H        1.80120000      10.34586000       2.54867000       0.42829000      -0.27407000       1.31217000
H        2.84393000      10.73116000       3.65179000      -0.92543000      -0.92166000       0.06839000
O        3.13853000       9.30092000       9.64534000      -0.40358000      -0.52672000       3.05185000
H        2.59983000       9.96362000      10.14656000       0.60895000      -0.98573000      -0.67172000
H        3.28525000       8.56271000      10.28886000      -0.25459000       0.95034000      -0.64300000
O        9.75622000       0.86721000       0.75880000      -0.84571000      -1.61633000      -0.43689000
H        9.92625000       0.09889000       0.15764000      -0.20897000       1.07345000       0.77446000
H        9.04437000       0.55103000       1.37026000       1.27901000       0.27645000      -0.76212000
O        3.59012000       9.95907000       7.54390000       1.37952000       2.28155000      -1.43836000
H        4.23814000      10.34810000       8.18369000      -1.17386000      -0.67979000      -0.73518000
H        3.50252000      10.64273000       6.83289000       0.16231000      -0.91035000       0.60763000
O        4.33805000       0.90304000       9.81208000       1.23313000      -1.34116000       0.04835000
H        5.05290000       0.74684000      10.47932000      -1.02097000       0.03357000      -0.74806000
H        4.41289000       0.14023000       9.18510000       0.12779000       1.05521000       0.73308000
O        8.37400000      10.88620000      10.97364000      -0.71122000      -0.94348000      -0.78906000
H        7.39839000      10.74951000      10.87316000       1.43661000       0.07723000       0.12609000
H        8.78201000      10.21397000      10.37178000      -0.76959000       0.98401000       0.56503000
O        2.99878000       6.28877000       0.18209000      -0.35746000      -2.23094000      -0.22348000
H        2.02212000       6.23685000       0.33717000       1.52423000       0.20162000       0.04782000
H        3.36834000       5.50605000       0.66311000      -0.60758000       1.20560000      -0.55974000
22
Lattice="100.0 0.0 0.0 0.0 100.0 0.0 0.0 0.0 100.0" Properties=species:S:1:pos:R:3:forces:R:3 config_type=vacuum energy=-11580.57614828 pbc="T T T"
C        0.39329000       1.94358000       1.04554000      -1.01195000       1.72195000       1.03718000
C       -0.01812000       1.60737000       2.46662000       0.48318000      -2.30524000      -0.87631000
C        0.31486000       0.29033000       2.65368000       0.12080000       1.15184000      -1.04797000
H       -0.50301000       2.26605000       3.15099000      -0.04608000       0.32078000       0.25147000
C        0.88683000      -0.23310000       1.38730000      -0.29327000      -0.32276000       0.51214000
H        0.30501000      -0.29916000       3.55796000      -0.30357000       0.10972000       0.05289000
C        0.86643000       0.72035000       0.42948000       1.19855000      -1.08049000       1.04967000
H        1.21814000      -1.27133000       1.33108000       0.13672000       0.43822000      -0.29145000
H        1.48045000       0.77005000      -0.45237000      -0.42049000      -0.38112000      -0.39473000
H        1.30347000       2.53589000       1.18541000      -0.12784000       0.55123000      -0.33243000
H       -0.37571000       2.51410000       0.49783000       0.49704000      -0.05753000       0.12024000
C       -1.26636000      -0.48526000      -1.42942000      -2.43307000       1.66263000       2.05893000
C       -2.04916000      -0.41013000      -0.24807000       1.57063000      -0.58926000      -3.59254000
H       -2.58908000       0.50427000      -0.06499000      -0.40766000      -0.05866000      -0.11463000
H       -2.24088000      -1.25029000       0.42812000       0.92440000       0.47260000      -0.09565000
C       -0.17893000      -1.47239000      -1.56969000      -0.92906000      -1.34289000       1.48279000
H       -1.42936000       0.28979000      -2.22759000       0.60117000      -0.49631000       1.17969000
O       -0.31961000      -2.52790000      -0.96168000       0.53586000       0.39589000      -0.70331000
C        1.13222000      -1.20580000      -2.25984000       0.09461000       0.47939000       0.68677000
H        1.91442000      -1.36526000      -1.51434000      -0.10180000      -0.42155000      -0.16410000
H        1.32075000      -0.21734000      -2.64327000      -0.43044000       0.45651000      -0.22825000
H        1.20390000      -1.90691000      -3.05590000       0.39498000      -0.66157000      -0.60814000
118
Lattice="100.0 0.0 0.0 0.0 100.0 0.0 0.0 0.0 100.0" Properties=species:S:1:pos:R:3:forces:R:3 config_type=reactants_in_water energy=-78174.7296111 pbc="T T T"
C        5.24781000       7.27777000       6.49088000       1.06348000       0.45921000      -1.90091000
C        4.73738000       6.51894000       7.62570000       0.64312000      -0.65106000       0.85039000
C        5.66758000       5.60854000       7.99129000      -0.27289000      -0.65412000      -1.00356000
H        3.80648000       6.75493000       8.11392000      -0.14283000      -0.27779000       0.00126000
C        6.83171000       5.74229000       7.06336000       0.25873000      -0.41872000       0.88708000
H        5.51486000       4.77032000       8.68447000       0.20481000       0.69876000      -0.10415000
C        6.68376000       6.78825000       6.25281000      -1.54026000      -0.10964000       1.03950000
H        7.69578000       5.10279000       7.08015000       0.10613000      -0.01964000       0.26648000
H        7.45494000       7.25263000       5.67155000      -0.17492000      -0.15093000      -0.33885000
H        5.22940000       8.33095000       6.62755000      -0.23992000       1.10727000       0.15367000
H        4.69649000       7.07806000       5.54325000       0.12841000       0.12429000       0.62243000
C        4.08669000       4.66679000       4.43431000      -1.11229000       0.33759000      -0.33994000
C        2.94357000       4.57056000       5.09329000       0.77937000      -0.15475000       0.69312000
H        2.11400000       5.26476000       4.96335000       0.31886000      -0.13117000       0.54679000
H        2.99412000       3.80898000       5.87563000      -0.74726000       0.02390000      -0.30862000
C        5.11457000       3.61920000       4.48018000       0.20442000      -1.08552000      -0.08251000
H        4.24378000       5.48373000       3.75099000       0.22658000       0.03549000      -0.34259000
O        4.98408000       2.51454000       4.98814000      -0.72218000       1.11340000       0.49667000
C        6.35263000       3.95023000       3.78172000       0.71160000      -1.13354000      -1.43577000
H        6.82329000       4.72317000       4.31015000       0.77877000       1.26774000       0.63871000
H        6.22761000       4.24654000       2.72508000      -0.24139000       0.09181000       0.59523000