22
Lattice="100.0 0.0 0.0 0.0 100.0 0.0 0.0 0.0 100.0" Properties=species:S:1:pos:R:3:forces:R:3 config_type=vacuum energy=-11580.65292032 pbc="T T T"
C       -0.12122000       1.80949000       0.92667000      -0.77842000      -0.05935000       0.20285000
C       -0.90615000       0.73556000       1.72702000       1.16711000       0.43448000       0.29947000
C        0.02709000      -0.25343000       2.06569000       0.41484000       0.66362000      -0.38462000
H       -1.72308000       0.99826000       2.38981000      -0.10405000      -0.03756000      -0.30956000
C        1.15098000      -0.08146000       1.23455000       0.34591000      -0.08460000       0.41085000
H       -0.07981000      -1.05681000       2.78651000      -0.16898000       0.18595000      -0.21472000
C        0.97886000       0.98390000       0.37161000       0.03378000      -1.12604000       0.49751000
H        2.03038000      -0.70490000       1.22403000      -0.16394000      -0.31117000      -0.07892000
H        1.69857000       1.15966000      -0.40486000       0.04196000       0.75828000      -0.02716000
H        0.27467000       2.54692000       1.64171000       0.00265000      -0.19828000      -0.12303000
H       -0.72601000       2.32082000       0.18231000       0.09101000       0.17170000       0.13051000
C       -0.65436000      -0.05227000      -0.90724000      -0.47800000       0.24352000      -1.18267000
C       -1.73692000      -0.02608000      -0.06845000      -0.29087000       0.07156000       1.43423000
H       -2.36913000       0.86120000      -0.02624000      -0.19289000      -0.63797000      -0.48710000
H       -2.06668000      -0.92489000       0.46425000       0.00555000       0.39638000      -0.62079000
C        0.06286000      -1.27032000      -1.15483000       0.37072000      -3.07543000       0.34759000
H       -0.61539000       0.63774000      -1.72737000       0.25646000       0.68741000       0.00517000
O       -0.07769000      -2.25378000      -0.41567000       0.09020000       1.07645000      -0.56317000
C        1.05821000      -1.38682000      -2.32747000       0.01604000       1.50931000       1.26547000
H        1.65845000      -0.46976000      -2.20968000       0.20625000      -0.29954000      -0.27390000
H        0.58620000      -1.28051000      -3.30014000      -0.18200000      -0.37040000      -0.03537000
H        1.71521000      -2.25052000      -2.18811000      -0.47512000       0.12571000      -0.26815000
22
Lattice="100.0 0.0 0.0 0.0 100.0 0.0 0.0 0.0 100.0" Properties=species:S:1:pos:R:3:forces:R:3 config_type=vacuum energy=-11580.59345095 pbc="T T T"
C       -0.05261000       1.81093000       0.86675000      -2.63016000       0.37585000       0.94912000
C       -0.90184000       0.79822000       1.69188000       2.37013000       0.11549000       0.19667000
C        0.05222000      -0.15444000       2.12334000      -1.74447000      -0.06955000      -0.62859000
H       -1.86339000       0.99107000       2.11250000      -0.11172000       0.27945000       0.59923000
C        1.18761000      -0.08520000       1.29218000       0.07933000       0.26665000      -0.14430000
H       -0.22671000      -0.99990000       2.74115000       0.27141000       0.15650000       0.10486000
C        1.00822000       0.96915000       0.43389000       1.91774000      -1.18491000      -0.64666000
H        1.96852000      -0.82403000       1.19638000      -0.07383000       0.01012000       0.22337000
H        1.64035000       1.28438000      -0.36579000       0.65574000      -0.00832000      -0.18302000
H        0.34688000       2.61874000       1.48426000      -0.14261000      -0.02916000       0.26199000
H       -0.59852000       2.23787000       0.04243000      -0.17047000       0.46819000      -0.06241000
C       -0.68868000      -0.06379000      -0.94733000      -0.59049000      -0.06373000       0.11828000
C       -1.74958000      -0.05101000      -0.05806000       0.58500000      -0.10705000      -0.14496000
H       -2.35083000       0.83771000       0.02935000      -0.45925000      -0.22782000      -0.50930000
H       -2.15429000      -0.99154000       0.34007000       0.38861000       0.57595000      -0.17137000
C        0.04851000      -1.27581000      -1.16641000       0.16455000      -3.32564000       1.09759000
H       -0.46765000       0.74192000      -1.61433000      -0.09226000       0.43175000      -0.17414000
O       -0.10268000      -2.26903000      -0.42164000      -0.10800000       1.59027000      -0.69195000
C        1.02504000      -1.45122000      -2.30968000       0.46701000       0.98318000       0.89254000
H        1.80673000      -0.66580000      -2.20736000      -0.31707000      -0.54823000      -0.27088000
H        0.48981000      -1.28591000      -3.22199000      -0.18865000       0.14826000      -0.74291000
H        1.46174000      -2.45768000      -2.26616000      -0.16328000       0.49503000      -0.01681000
22
Lattice="100.0 0.0 0.0 0.0 100.0 0.0 0.0 0.0 100.0" Properties=species:S:1:pos:R:3:forces:R:3 config_type=vacuum energy=-11580.11002826 pbc="T T T"
C       -0.10057000       1.79161000       0.91535000      -0.47216000       1.85645000      -0.70350000
C       -0.87223000       0.84156000       1.68152000      -0.28428000      -1.87238000       2.33227000
C        0.00905000      -0.16768000       2.13816000      -0.13519000       1.15274000      -2.34055000
H       -1.75918000       1.12041000       2.26019000       0.31262000      -0.05938000      -0.34444000
C        1.15341000      -0.11752000       1.25008000      -0.80935000       0.09464000       2.02405000
H       -0.34947000      -0.88481000       2.84283000       0.46996000      -0.55814000       0.26400000
C        0.99457000       0.96463000       0.41174000       1.43380000      -0.62844000      -0.69775000
H        1.97262000      -0.81323000       1.32063000      -0.00668000      -0.03694000      -0.38984000
H        1.73891000       1.29963000      -0.30980000      -0.24854000      -0.03823000       0.27112000
H        0.28412000       2.52319000       1.64088000       0.14284000       0.02134000      -0.20945000
H       -0.73079000       2.31470000       0.18864000       0.54754000       0.12092000      -0.00845000
C       -0.66174000      -0.10152000      -0.95638000      -0.24300000       1.10356000      -0.86282000
C       -1.65296000      -0.05110000      -0.01937000       0.02640000      -3.50598000       0.67082000
H       -2.28223000       0.73247000       0.13036000      -2.03686000       1.91558000      -0.68291000
H       -2.07181000      -1.05505000       0.26940000       0.75356000       1.26163000       0.35354000
C        0.07500000      -1.29515000      -1.19574000      -1.97092000      -3.08837000       2.02015000
H       -0.69320000       0.53336000      -1.81974000       0.40570000       1.06009000       0.11106000
O       -0.08160000      -2.26712000      -0.41082000       0.80290000       1.56172000      -1.49898000
C        0.98782000      -1.36457000      -2.34496000       1.43712000       0.03744000       0.79022000
H        1.66330000      -0.52051000      -2.14720000       0.38757000      -0.40294000      -0.32891000
H        0.62644000      -1.23307000      -3.34067000      -0.90694000       0.22819000      -0.45951000
H        1.47417000      -2.33210000      -2.24198000       0.40412000       0.20108000      -0.27397000
22
Lattice="100.0 0.0 0.0 0.0 100.0 0.0 0.0 0.0 100.0" Properties=species:S:1:pos:R:3:forces:R:3 config_type=vacuum energy=-11580.50581788 pbc="T T T"
C       -0.08876000       1.82017000       0.92796000       0.55538000       0.23098000       0.28277000
C       -0.90085000       0.74826000       1.63670000      -0.94705000       0.37328000      -0.52884000
C        0.09250000      -0.18695000       2.11142000      -0.72107000      -1.52372000      -0.58057000
H       -1.72059000       1.06319000       2.28865000       0.22790000      -0.24911000      -0.20128000
C        1.19701000      -0.11887000       1.27425000       0.29848000      -1.15949000       0.88745000
H       -0.14901000      -1.05737000       2.74145000       0.24421000       0.76575000      -0.09867000
C        0.96663000       0.90501000       0.41003000       1.18370000       1.41736000      -2.60452000
H        2.05371000      -0.81049000       1.15670000      -0.91932000       0.43279000       0.41239000
H        1.70547000       1.14858000      -0.36051000      -0.41067000       0.27427000       0.33385000
H        0.34926000       2.51055000       1.66621000       0.14535000      -0.37142000       0.07489000
H       -0.56113000       2.48904000       0.21597000      -0.31679000      -0.45262000      -0.21642000
C       -0.74970000      -0.12382000      -1.00657000       0.45912000       1.68439000       1.09411000
C       -1.70142000       0.11271000       0.06660000       0.30420000      -0.74913000      -0.89873000
H       -2.37726000       0.90319000      -0.28829000       0.05542000      -0.23527000       0.84189000
H       -2.20046000      -0.81952000       0.31857000      -0.07835000       0.24755000       0.49233000
C        0.01360000      -1.31701000      -1.20824000      -0.40118000      -1.98821000       2.68293000
H       -0.67687000       0.60284000      -1.81531000       0.00380000       0.05093000       0.29799000
O       -0.07928000      -2.28741000      -0.41528000      -0.05606000       1.34434000      -1.24424000
C        1.02774000      -1.33309000      -2.27879000      -0.21204000       0.17768000      -1.31281000
H        1.59818000      -0.40787000      -2.26393000       0.21474000      -0.06042000       0.01484000
H        0.52604000      -1.36905000      -3.26215000       0.08539000      -0.00967000       0.29590000
H        1.64591000      -2.20908000      -2.18663000       0.30845000      -0.13957000       0.09175000
22
Lattice="100.0 0.0 0.0 0.0 100.0 0.0 0.0 0.0 100.0" Properties=species:S:1:pos:R:3:forces:R:3 config_type=vacuum energy=-11580.11002826 pbc="T T T"
C       -0.10057000       1.79161000       0.91535000      -0.47216000       1.85645000      -0.70350000
C       -0.87223000       0.84156000       1.68152000      -0.28428000      -1.87238000       2.33227000
C        0.00905000      -0.16768000       2.13816000      -0.13519000       1.15274000      -2.34055000
H       -1.75918000       1.12041000       2.26019000       0.31262000      -0.05938000      -0.34444000
C        1.15341000      -0.11752000       1.25008000      -0.80935000       0.09464000       2.02405000
H       -0.34947000      -0.88481000       2.84283000       0.46996000      -0.55814000       0.26400000
C        0.99457000       0.96463000       0.41174000       1.43380000      -0.62844000      -0.69775000
H        1.97262000      -0.81323000       1.32063000      -0.00668000      -0.03694000      -0.38984000
H        1.73891000       1.29963000      -0.30980000      -0.24854000      -0.03823000       0.27112000
H        0.28412000       2.52319000       1.64088000       0.14284000       0.02134000      -0.20945000
H       -0.73079000       2.31470000       0.18864000       0.54754000       0.12092000      -0.00845000
C       -0.66174000      -0.10152000      -0.95638000      -0.24300000       1.10356000      -0.86282000
C       -1.65296000      -0.05110000      -0.01937000       0.02640000      -3.50598000       0.67082000
H       -2.28223000       0.73247000       0.13036000      -2.03686000       1.91558000      -0.68291000
H       -2.07181000      -1.05505000       0.26940000       0.75356000       1.26163000       0.35354000
C        0.07500000      -1.29515000      -1.19574000      -1.97092000      -3.08837000       2.02015000
H       -0.69320000       0.53336000      -1.81974000       0.40570000       1.06009000       0.11106000
O       -0.08160000      -2.26712000      -0.41082000       0.80290000       1.56172000      -1.49898000
C        0.98782000      -1.36457000      -2.34496000       1.43712000       0.03744000       0.79022000
H        1.66330000      -0.52051000      -2.14720000       0.38757000      -0.40294000      -0.32891000
H        0.62644000      -1.23307000      -3.34067000      -0.90694000       0.22819000      -0.45951000
H        1.47417000      -2.33210000      -2.24198000       0.40412000       0.20108000      -0.27397000
22
Lattice="100.0 0.0 0.0 0.0 100.0 0.0 0.0 0.0 100.0" Properties=species:S:1:pos:R:3:forces:R:3 config_type=vacuum energy=-11580.39735682 pbc="T T T"
C       -0.14744000       1.72969000       0.82905000       0.66675000       1.23867000       1.39260000
C       -0.86541000       0.80849000       1.82011000       1.22920000      -0.07637000      -1.23575000
C        0.01084000      -0.23738000       2.06583000      -0.71819000       0.08364000       0.41409000
H       -1.75184000       1.05404000       2.38696000       0.07771000       0.03354000      -0.18031000
C        1.13802000      -0.13543000       1.23417000       1.07482000       0.41956000       1.09542000
H       -0.19510000      -1.08340000       2.71399000       0.08555000       0.28544000       0.03157000
C        1.04420000       0.94768000       0.42581000       0.07149000      -0.67155000      -0.97717000
H        2.07166000      -0.65308000       1.38137000      -0.24746000      -0.67084000      -0.26938000
H        1.87629000       1.23497000      -0.23112000      -0.76563000       0.29461000       0.25600000
H        0.44715000       2.47969000       1.37875000      -0.68357000       0.49216000       0.46652000
H       -0.75769000       2.23072000       0.08039000       0.27117000      -0.01138000       0.22011000
C       -0.70772000      -0.04239000      -0.93515000      -0.30616000      -0.48129000      -0.08241000
C       -1.71490000      -0.02155000      -0.00517000      -0.32758000      -1.41192000      -0.92906000
H       -2.47668000       0.69158000      -0.11957000      -0.68430000       1.19541000       0.17303000
H       -2.08462000      -0.92376000       0.48062000       0.52238000       0.05473000      -0.36757000
C        0.05506000      -1.22445000      -1.15995000       0.45285000      -3.65849000       0.85443000
H       -0.44180000       0.71967000      -1.63425000      -0.46572000       0.76127000      -0.09989000
O       -0.10078000      -2.25518000      -0.46124000       0.20617000       1.79640000      -1.00140000
C        1.05420000      -1.32040000      -2.32280000       0.12326000       0.30207000       0.91283000
H        1.68904000      -0.42846000      -2.38692000      -0.21371000      -0.07234000      -0.08634000
H        0.49555000      -1.42884000      -3.24556000      -0.04868000      -0.08301000      -0.21332000
H        1.70026000      -2.19223000      -2.14224000      -0.39239000       0.31602000      -0.18320000
22
Lattice="100.0 0.0 0.0 0.0 100.0 0.0 0.0 0.0 100.0" Properties=species:S:1:pos:R:3:forces:R:3 config_type=vacuum energy=-11580.59345095 pbc="T T T"
C       -0.05261000       1.81093000       0.86675000      -2.63016000       0.37585000       0.94912000
C       -0.90184000       0.79822000       1.69188000       2.37013000       0.11549000       0.19667000
C        0.05222000      -0.15444000       2.12334000      -1.74447000      -0.06955000      -0.62859000
H       -1.86339000       0.99107000       2.11250000      -0.11172000       0.27945000       0.59923000
C        1.18761000      -0.08520000       1.29218000       0.07933000       0.26665000      -0.14430000
H       -0.22671000      -0.99990000       2.74115000       0.27141000       0.15650000       0.10486000
C        1.00822000       0.96915000       0.43389000       1.91774000      -1.18491000      -0.64666000
H        1.96852000      -0.82403000       1.19638000      -0.07383000       0.01012000       0.22337000
H        1.64035000       1.28438000      -0.36579000       0.65574000      -0.00832000      -0.18302000
H        0.34688000       2.61874000       1.48426000      -0.14261000      -0.02916000       0.26199000
H       -0.59852000       2.23787000       0.04243000      -0.17047000       0.46819000      -0.06241000
C       -0.68868000      -0.06379000      -0.94733000      -0.59049000      -0.06373000       0.11828000
C       -1.74958000      -0.05101000      -0.05806000       0.58500000      -0.10705000      -0.14496000
H       -2.35083000       0.83771000       0.02935000      -0.45925000      -0.22782000      -0.50930000
H       -2.15429000      -0.99154000       0.34007000       0.38861000       0.57595000      -0.17137000
C        0.04851000      -1.27581000      -1.16641000       0.16455000      -3.32564000       1.09759000
H       -0.46765000       0.74192000      -1.61433000      -0.09226000       0.43175000      -0.17414000
O       -0.10268000      -2.26903000      -0.42164000      -0.10800000       1.59027000      -0.69195000
C        1.02504000      -1.45122000      -2.30968000       0.46701000       0.98318000       0.89254000
H        1.80673000      -0.66580000      -2.20736000      -0.31707000      -0.54823000      -0.27088000
H        0.48981000      -1.28591000      -3.22199000      -0.18865000       0.14826000      -0.74291000
H        1.46174000      -2.45768000      -2.26616000      -0.16328000       0.49503000      -0.01681000
22
Lattice="100.0 0.0 0.0 0.0 100.0 0.0 0.0 0.0 100.0" Properties=species:S:1:pos:R:3:forces:R:3 config_type=vacuum energy=-11580.50706075 pbc="T T T"
C       -0.12027000       1.81047000       0.91412000       1.04000000       0.28650000      -0.24532000
C       -0.89206000       0.76843000       1.69938000      -1.29258000       2.59919000      -1.28884000
C       -0.02689000      -0.18187000       2.04033000       2.77046000      -2.06455000       0.69222000
H       -1.76680000       1.04541000       2.24610000      -0.39222000      -0.06481000       0.25136000
C        1.17559000      -0.06895000       1.27180000      -0.39232000      -2.63767000       1.55436000
H       -0.21927000      -0.99354000       2.71602000      -0.08031000      -0.14998000       0.14579000
C        1.02684000       0.90932000       0.39121000      -1.05061000       3.12887000      -1.03963000
H        1.94542000      -0.83676000       1.21403000      -0.20247000       0.24832000       0.27051000
H        1.75495000       1.27547000      -0.31275000       0.08249000      -0.05243000      -0.09193000
H        0.34274000       2.52730000       1.63299000      -0.23242000      -0.37501000      -0.38800000
H       -0.66613000       2.39513000       0.15352000       0.23679000      -0.42174000       0.43081000
C       -0.62685000      -0.08153000      -0.93939000      -1.77383000       2.28288000       0.33518000
C       -1.68513000       0.02915000      -0.02272000       0.45044000      -3.88874000       0.32414000
H       -2.47933000       0.70491000      -0.13198000      -0.58804000       1.16329000      -0.21485000
H       -2.04879000      -0.97349000       0.41156000       0.63264000       1.66602000      -0.71932000
C        0.05863000      -1.31659000      -1.15100000       0.82171000       1.64956000      -1.60612000
H       -0.53228000       0.73837000      -1.65008000       0.29232000      -0.35687000      -0.02408000
O       -0.08664000      -2.24385000      -0.43952000      -0.64282000      -3.05464000       2.48475000
C        1.01129000      -1.38389000      -2.28811000       1.20377000       1.75377000       0.08405000
H        1.72938000      -0.53146000      -2.27691000      -0.63747000      -0.32875000       0.03059000
H        0.49561000      -1.34496000      -3.20862000      -0.73165000       0.15447000      -1.11505000
H        1.60999000      -2.24709000      -2.27000000       0.52528000      -1.30658000       0.22575000
