115
Lattice="100.0 0.0 0.0 0.0 100.0 0.0 0.0 0.0 100.0" Properties=species:S:1:pos:R:3:forces:R:3 config_type=reactants_in_water energy=-76093.2049322 pbc="T T T"
C        6.33969000       7.24965000       7.09852000       0.44929000      -0.22734000       0.82887000
C        5.08657000       6.80739000       7.78902000      -0.82545000      -0.35473000       0.01719000
C        5.21444000       5.53456000       8.22320000       1.27945000       0.41880000      -0.54141000
H        4.21877000       7.47105000       7.92783000       0.50443000      -0.49381000       0.03722000
C        6.58617000       5.05971000       7.83657000      -0.87423000       0.24300000       0.15328000
H        4.50485000       4.95379000       8.77448000      -0.31404000      -0.10200000       0.16085000
C        7.21100000       6.00818000       7.14684000      -0.07941000       1.02954000       0.16487000
H        7.07778000       4.14472000       8.08721000      -0.23893000      -0.57261000       0.24521000
H        8.25128000       5.98074000       6.84444000      -0.24793000       0.05738000      -0.20733000
H        6.78448000       7.97720000       7.82029000       0.04287000      -0.10457000      -0.90726000
H        6.18131000       7.69222000       6.11079000       0.25082000       0.15746000       0.26280000
C        4.49144000       4.26823000       2.90806000       0.91060000       0.08112000       0.10383000
C        3.49577000       4.09764000       3.74863000      -0.57811000       0.18027000       0.79425000
H        2.47432000       4.31392000       3.52658000      -0.42723000       0.17641000      -0.10962000
H        3.73260000       3.78006000       4.76727000      -0.21138000       0.32073000      -0.26426000
C        5.79531000       4.16614000       3.60977000       1.33515000      -0.49614000       0.03523000
H        4.46446000       4.55431000       1.86560000      -0.37380000       0.21189000       0.25148000
O        5.97477000       3.28130000       4.42329000       0.14137000       0.32356000      -0.13116000
C        6.82144000       5.24727000       3.33132000       1.84581000       0.55187000      -0.76921000
H        6.77030000       6.04351000       4.11292000      -0.01333000      -0.70583000      -0.45385000
H        6.66950000       5.76003000       2.35656000      -0.36749000      -0.28766000       0.62515000
H        7.92159000       4.88749000       3.24584000      -2.01397000       0.06384000       0.61527000
O        3.38241000       8.74908000       5.60727000      -0.56484000      -1.97254000      -0.75610000
H        2.64844000       8.48401000       5.00464000       0.58629000       0.82496000       0.48789000
H        3.69971000       7.84579000       5.84055000       0.07054000       0.91670000       0.18328000
O       10.16034000       9.04563000       6.85257000      -2.10926000      -0.32870000      -2.33518000
H       10.26472000       9.95186000       6.60702000       0.27410000       0.68103000      -0.20817000
H       10.68956000       8.88145000       7.57341000       1.90761000      -0.49639000       2.48832000
O        6.18365000       8.73590000       0.78695000      -1.21864000      -0.93652000      -1.84927000
H        6.08839000       9.18820000       1.59598000       0.07503000       0.85468000       1.59636000
H        5.26206000       8.55357000       0.49887000       0.94131000       0.17411000       0.20098000
O        8.51197000       0.73483000       5.62887000       0.01211000       1.82155000      -0.46718000
H        7.96873000       0.11284000       6.09874000      -0.58621000       0.00782000       0.47161000
H        8.04560000       1.61580000       5.67135000       0.54861000      -1.66152000       0.06073000
O        3.11897000       1.88060000       8.98639000       1.00757000       0.10707000       0.37343000
H        3.73594000       1.91024000       8.21764000      -0.46411000      -0.09790000       1.12924000
H        3.64154000       1.83465000       9.82774000      -0.43431000      -0.17143000      -1.40317000
O        9.31944000       3.00908000       1.72806000      -0.50659000      -0.33390000      -1.17756000
H        8.81470000       2.48088000       1.07600000      -0.10833000      -0.17185000       0.93398000
H        9.86846000       3.47274000       1.09693000       0.58053000       0.49528000       0.09879000
O        8.89777000       7.94883000       0.83107000       0.13954000      -2.31051000       0.44160000
H        9.22269000       7.03600000       1.07321000      -0.25380000       1.52125000      -0.36487000
H        7.94717000       7.76271000       0.70790000       0.25358000       0.76941000       0.03442000
O        0.14855000       8.07148000       1.26848000       0.43811000       0.39610000       0.56658000
H       -0.34216000       8.35940000       2.04750000      -0.11898000      -0.02513000      -0.29128000
H       -0.32417000       7.36708000       0.84416000      -0.53589000      -0.35666000      -0.21678000
O        4.64576000       2.68541000      11.73588000       0.91772000       0.03348000      -1.14378000
H        4.46996000       3.11128000      10.87815000      -0.17547000       0.13058000       0.59405000
H        5.58491000       2.43055000      11.61402000      -0.70018000       0.06808000       0.43180000
O       11.80020000       5.26466000       7.43949000      -0.87160000       0.31913000      -1.82024000
H       11.95184000       5.35387000       6.43486000      -0.67804000      -0.06179000       2.22806000
H       10.83069000       5.43799000       7.56406000       1.47177000      -0.23645000      -0.42534000
O        7.25483000       0.58952000       0.55880000      -1.94722000       0.42602000       1.06950000
H        6.46658000       0.79992000       1.17104000       1.80321000      -0.55422000      -1.15650000
H        6.98349000      -0.25712000       0.17418000       0.18060000       0.20921000       0.15849000
O       -0.91162000      10.27829000       5.35180000      -0.28149000      -0.34373000       0.64668000
H       -0.50324000      10.02495000       6.20151000      -0.27042000       0.19894000      -0.62936000
H       -1.86975000      10.19408000       5.50897000       0.64204000       0.08890000      -0.09219000
O        5.46081000      10.42736000       4.50350000      -1.44589000      -1.34069000      -1.13357000
H        5.21501000      10.67010000       3.56764000       0.26241000      -0.45739000       1.65937000
H        4.86320000       9.63335000       4.74831000       1.06521000       2.00780000      -0.55787000
O       10.24412000       0.30647000       9.73676000       1.19450000       0.95540000       0.04046000
H       10.90034000      -0.24039000      10.19963000      -0.31762000       0.34066000      -0.27107000
H       10.73386000       1.14414000       9.51356000      -0.75069000      -1.34311000       0.30570000
O        3.88101000       9.34415000      11.53871000      -0.96531000       0.75388000      -1.02830000
H        4.44911000       9.20498000      10.76914000      -0.05810000       0.32637000       0.01729000
H        3.07624000       9.79679000      11.17148000       1.15642000      -0.75581000       0.59694000
O       11.34897000       9.00553000       2.61296000       0.03301000      -0.16825000      -0.52976000
H       11.71688000       9.77345000       2.15962000      -0.05743000      -0.09956000       0.14872000
H       10.76021000       8.61901000       1.94843000      -0.11207000       0.21020000       0.27291000
O       11.27402000       4.75689000       4.60207000       0.33430000      -0.47881000      -0.90030000
H       11.29342000       4.78927000       3.62126000      -0.03166000       0.06079000       1.01996000
H       11.63164000       3.88074000       4.81806000      -0.29474000       0.25775000      -0.12564000
O        0.01480000       5.87957000       3.81213000       1.23877000      -0.22508000       0.20148000
H       -0.77038000       6.19783000       3.41089000      -1.49413000       0.18058000      -0.30631000
H        0.66207000       6.41615000       3.35095000       0.47803000       0.12032000      -0.00826000
O       -0.94088000       5.57949000       7.91693000       1.07642000       0.04729000       0.09779000
H       -1.44297000       5.12612000       7.25334000      -0.55327000      -0.37011000      -0.50950000
H       -0.10256000       5.08558000       7.86681000      -0.45425000       0.23456000       0.27059000
O        5.45299000       7.13069000      12.22280000      -1.30049000       1.99431000      -0.31405000
H        4.69301000       7.75371000      11.91220000       1.75949000      -2.09084000       0.85943000
H        5.49993000       6.32822000      11.70780000      -0.41819000      -0.01164000      -0.38281000
O        1.45095000       2.74350000       2.17679000      -0.17545000      -1.55471000      -0.01413000
H        2.21702000       2.84417000       2.76763000      -0.27440000      -0.29003000      -0.46799000
H        1.30510000       1.77238000       2.06328000       0.17659000       1.30193000       0.19433000
O        2.50611000       5.01014000       0.93898000      -0.51090000       0.12319000      -0.31936000
H        1.85961000       5.38385000       1.54168000       0.03683000       0.31635000       0.03157000
H        2.07825000       4.16847000       0.73420000       0.18444000      -0.10000000      -0.00904000
O        3.91408000       1.01345000       5.72458000      -1.00207000       0.56169000      -0.91003000
H        4.10378000       1.64911000       5.00255000       0.21413000      -0.35461000       0.80644000
H        2.93448000       1.00586000       5.82451000       0.83253000      -0.09307000       0.34176000
O        1.43810000       0.35431000       7.32917000      -2.17215000      -1.57145000      -1.29385000
H        1.59201000      -0.16349000       8.12791000       0.30480000       0.36723000       0.07269000
H        0.61348000      -0.09825000       6.93935000       1.91072000       1.12308000       0.82487000
O        8.44028000       8.67346000      11.55301000      -0.87281000      -0.44958000       0.66049000
H        7.83249000       8.04891000      12.04316000       0.66713000       1.32603000      -0.84168000
H        8.04663000       9.56492000      11.58793000       0.03583000      -0.86265000       0.20420000
O        2.54590000      10.63823000       1.18724000       1.58692000       1.51646000      -1.01342000
H        1.74207000      10.85139000       0.70033000      -0.01143000      -0.16749000       0.06005000
H        3.22249000      11.27775000       0.79614000      -1.41354000      -1.32886000       0.83395000
O        0.44461000       3.91519000       5.95329000       0.04936000      -0.29358000       0.63492000
H        0.46047000       3.45726000       5.12266000      -0.06254000      -0.32599000      -0.58704000
H        0.62919000       4.81604000       5.71721000      -0.04920000       0.71003000      -0.33984000
O        8.58765000      12.12869000       4.29181000       0.02881000       0.08728000       0.28002000
H        7.82785000      12.72291000       4.34962000       0.19240000      -0.31675000       0.15276000
H        8.72944000      11.77554000       5.18585000      -0.34095000       0.17419000      -0.56176000
O        8.78135000      -1.32304000      -1.38486000       0.09284000       0.00245000       0.40816000
H        8.14729000      -0.80481000      -1.88255000       0.04621000       0.27243000       0.07650000
H        9.00486000      -0.81663000      -0.58564000      -0.18562000      -0.08425000      -0.52427000
O        4.74225000      -0.05791000       2.14195000      -1.74718000       0.14334000      -0.23581000
H        4.34746000       0.21111000       3.00602000       0.52733000      -0.44338000      -0.94633000
H        3.97320000      -0.26399000       1.54654000       1.15374000       0.31346000       1.01108000
O        6.08473000       0.50557000       7.62036000      -2.02995000       0.11284000      -0.85849000
H        5.21028000       0.53913000       7.11388000       1.69114000       0.32843000       0.45884000
H        5.97502000      -0.32808000       8.07700000       0.35613000      -0.24796000       0.41796000
124
Lattice="100.0 0.0 0.0 0.0 100.0 0.0 0.0 0.0 100.0" Properties=species:S:1:pos:R:3:forces:R:3 config_type=reactants_in_water energy=-82337.56072575 pbc="T T T"
C        5.74645000       7.12807000       6.73790000       0.68967000      -0.99153000       1.02895000
C        4.93793000       6.15383000       7.55662000       0.16202000      -0.19394000       0.51575000
C        5.79549000       5.10638000       7.86961000      -0.57875000       0.15136000      -0.13175000
H        4.00302000       6.41024000       8.06962000       0.70857000      -0.19457000      -0.14069000
C        6.94574000       5.17001000       7.04399000       0.44664000      -0.63212000       0.19964000
H        5.51745000       4.25500000       8.47255000       0.12219000       0.10452000       0.10004000
C        6.81418000       6.21632000       6.17444000      -0.64867000       0.83707000       0.70006000
H        7.71589000       4.38255000       7.03730000      -0.45748000       0.62498000      -0.11419000
H        7.41803000       6.55880000       5.36564000       0.39429000      -0.08806000       0.22798000
H        6.18822000       7.85669000       7.44608000       0.00196000      -0.26042000      -0.48079000
H        5.19209000       7.62725000       6.01091000      -0.69802000       1.01462000      -1.04595000
C        5.06665000       5.27548000       4.86028000      -0.33203000      -0.99659000       0.42873000
C        4.01444000       5.30101000       5.73187000      -0.14257000       1.23591000      -0.40260000
H        3.22266000       6.05440000       5.69427000       0.50191000      -0.04073000      -0.18487000
H        3.71604000       4.45351000       6.27173000      -0.14717000      -1.14409000       0.50809000
C        5.80501000       3.99578000       4.77534000       0.16964000      -0.00306000      -0.27292000
H        5.20933000       6.01037000       4.07471000      -0.05667000      -0.21988000       0.26873000
O        5.71730000       3.08074000       5.59463000       0.18015000       0.95115000      -0.55209000
C        6.65157000       3.89222000       3.51321000      -1.25952000       0.60441000       0.43805000
H        7.31694000       4.73453000       3.43477000       0.33425000       0.41982000       0.15614000
H        5.89674000       4.05006000       2.71372000       0.48242000      -0.54974000       0.14640000
H        7.24236000       3.00261000       3.47451000      -0.09397000      -0.52687000      -0.32971000
O        3.22369000       5.30976000       2.70203000       1.88010000       0.44215000      -0.93155000
H        2.86143000       6.03233000       2.21974000      -0.56055000       0.80812000      -0.06115000
H        2.62515000       4.98357000       3.32906000      -1.44898000      -0.63666000       1.09034000
O        1.40458000       7.93353000       7.04819000       0.19918000      -0.28008000       1.68433000
H        2.00528000       7.58650000       6.41889000       1.05609000      -0.55804000      -0.83671000
H        0.77331000       8.40192000       6.54844000      -1.22043000       0.87224000      -0.88420000
O        7.91310000       4.02748000       0.76037000       0.10240000      -0.45697000      -1.95598000
H        8.39712000       3.67504000       1.48391000       0.73630000      -0.65463000       1.28960000
H        7.29653000       4.62309000       1.12602000      -0.97823000       1.02627000       0.73113000
O        6.99867000       1.55395000       7.74988000      -0.55972000      -0.64371000       0.11824000
H        6.30854000       1.57069000       7.06810000       0.23003000       0.34526000       0.19412000
H        7.56139000       2.29751000       7.56429000       0.06995000       0.45077000      -0.04137000
O        2.63922000       8.36156000       2.38882000       0.04416000       0.54067000      -1.49223000
H        2.75009000       8.79629000       1.51032000       0.21627000      -0.23719000       1.08680000
H        1.74311000       8.02955000       2.30073000      -0.39077000      -0.19707000       0.44151000
O        6.35877000       5.79388000      11.18472000       0.14703000      -1.58279000       1.69625000
H        6.18699000       6.63809000      10.85419000      -0.36934000       2.01474000      -0.91475000
H        6.64056000       5.27317000      10.44995000       0.34287000      -0.55847000      -0.81023000
O        3.45524000       3.24590000       1.30089000       0.43260000      -0.66721000      -0.02539000
H        3.50436000       3.47786000       0.36962000      -0.19712000      -0.37278000       0.02277000
H        2.95910000       2.42068000       1.39244000      -0.18573000       0.39958000      -0.52638000
O        4.71313000       0.99741000       4.27713000      -1.60848000      -0.97082000       0.97098000
H        4.88742000       0.72737000       3.36573000       0.24350000      -0.33660000       0.56981000
H        4.00527000       0.41713000       4.69497000       1.59589000       0.75459000      -1.12377000
O        9.45833000       2.91146000       3.47559000       0.56547000       0.16088000      -0.25409000
H        9.39097000       3.26786000       4.36557000      -0.02124000       0.02567000       0.00465000
H       10.29586000       3.25442000       3.13428000      -0.24354000       0.00060000      -0.16450000
O        1.82841000       4.24634000       8.24515000      -0.48504000      -0.25152000      -0.14749000
H        0.94570000       4.44486000       7.90418000       0.25077000      -0.10687000      -0.05472000
H        1.69538000       3.47610000       8.82117000       0.08508000       0.53035000       0.14430000
O        2.21284000       1.54742000       5.03880000       0.08869000      -0.56300000      -0.91652000
H        2.24939000       1.84480000       5.92635000       0.02035000       0.55765000       1.38255000
H        3.01916000       1.90080000       4.61765000      -0.07721000       0.02772000       0.12549000
O       10.56146000       4.09827000       0.75557000       2.15150000      -0.01398000       0.59360000
H        9.79738000       4.46143000       0.36036000      -1.57592000       0.51699000      -0.65951000
H       11.22112000       4.81142000       0.72030000      -0.32440000      -0.49105000       0.09634000
O        0.78375000       2.42059000       3.02430000       0.20301000      -0.84559000       1.01450000
H        1.04680000       2.12604000       3.94455000      -0.41275000       0.67551000      -1.09745000
H        1.03035000       1.61520000       2.54892000      -0.15548000       0.32687000      -0.36071000
O        9.27985000       8.77053000       5.71617000       0.91632000      -0.16508000      -0.59935000
H        8.33785000       8.78014000       5.85466000      -0.63924000       0.32018000       0.12034000
H        9.34991000       8.51174000       4.77626000       0.04203000       0.18709000       0.54783000
O       -0.00542000       6.58924000       1.16906000       0.21898000       1.18751000      -0.19973000
H        0.33128000       7.40014000       0.73750000      -0.31309000      -0.85727000       0.15878000
H        0.72365000       5.97082000       1.19675000       0.22561000      -0.33536000      -0.09041000
O        5.73984000       0.96597000       1.73167000       0.09778000      -0.18901000       0.02347000
H        5.71259000       1.91476000       1.84042000       0.59202000       0.83436000      -0.12934000
H        4.80191000       0.82122000       1.75709000      -0.79278000      -0.47057000      -0.66820000
O        9.59462000       7.62271000      10.13846000      -0.70852000       0.55950000       1.76056000
H        9.93475000       8.11767000      10.91501000      -0.21820000      -0.50121000      -0.95873000
H       10.28290000       7.60158000       9.50177000       0.97620000       0.09665000      -0.77515000
O        4.55390000       2.19763000       8.95945000      -0.18027000      -1.32180000       0.73134000
H        5.39018000       1.80030000       9.30750000      -0.75072000       0.52001000      -0.67187000
H        3.97286000       1.41863000       8.84162000       0.62600000       0.58133000      -0.02720000
O        3.54093000       8.54427000       9.18083000       1.96874000       0.12550000      -0.04861000
H        2.91507000       9.03092000       8.69130000      -1.22909000       0.88854000      -1.08231000
H        2.99128000       8.01815000       9.71727000      -1.00898000      -1.16575000       1.19630000
O        7.33826000       7.18584000       0.97123000      -0.41888000       0.21449000       0.61241000
H        6.39365000       7.25762000       0.80384000       0.03123000       0.02076000       0.03163000
H        7.73639000       6.98402000       0.13571000       0.40084000      -0.26170000      -0.64084000
O        8.97701000       1.37088000       9.79582000      -1.02302000       0.41449000       0.63576000
H        8.13980000       1.88086000       9.79014000       0.57703000      -0.69925000       0.08882000
H        9.50629000       1.93532000       9.23992000       0.58143000       0.21482000      -0.54263000
O        8.73654000       4.12668000      10.68269000      -0.28957000      -0.12566000      -1.02398000
H        9.19737000       3.45223000      11.15504000       0.43697000      -0.83397000       0.42627000
H        8.71183000       4.87711000      11.25272000      -0.12235000       0.98284000       0.56612000
O        8.28743000       0.86871000       5.17258000      -0.46453000      -0.46973000      -1.62810000
H        8.12990000       0.56392000       4.23745000       0.67092000       0.38459000       1.36334000
H        7.55239000       1.48037000       5.26316000      -0.44114000       0.13829000       0.27533000
O        1.58858000       2.63689000      10.71619000       0.50844000       1.30313000       0.35596000
H        2.41019000       2.32274000      10.36105000       1.07736000      -0.17299000       0.00318000
H        0.95739000       2.02918000      10.41025000      -1.48974000      -1.33571000      -0.36746000
O        0.60233000       6.42233000      10.24971000       0.38276000      -0.39725000      -0.34865000
H        0.70111000       6.06136000       9.34805000       0.15108000       0.35372000       0.65104000
H        1.14063000       5.82027000      10.79308000      -0.29696000       0.24545000      -0.33173000
O        8.97039000       6.96294000       3.36585000      -0.78087000       0.01118000       0.24638000
H        8.65288000       6.64404000       4.24324000       0.72506000       0.14040000      -1.06007000
H        8.21618000       7.01852000       2.75043000       0.30348000      -0.08347000       0.47513000
O        6.75071000       9.75302000       4.73493000       0.09816000      -0.60719000       1.31249000
H        5.80960000       9.75496000       4.90299000      -0.05188000       0.19525000       0.13278000
H        6.90783000       9.86676000       3.82418000       0.17660000       0.22480000      -1.62087000
O        1.94903000       0.78231000       0.64232000       1.80526000       0.09455000       0.95581000
H        2.45977000      -0.03009000       0.66981000       0.14436000      -0.06138000      -0.03553000
H        1.15808000       0.53750000       0.22570000      -1.85024000      -0.32787000      -0.94780000
O        5.07930000      10.21717000       6.75648000       0.87792000       0.33176000      -1.02025000
H        4.21129000       9.92002000       6.58048000      -1.46927000      -0.48093000      -0.10054000
H        5.10228000      10.35417000       7.68574000       0.03353000       0.32659000       1.34663000
O        4.46859000      11.18594000       9.92111000      -1.44363000       1.40538000      -0.43240000
H        3.69180000      10.62758000      10.02472000      -0.17662000      -0.05546000       0.13807000
H        5.16171000      10.57752000       9.98911000       1.67980000      -1.38684000       0.30477000
O        9.99518000       9.83893000       1.14471000      -0.79059000      -0.58397000       0.79269000
H       10.06395000       9.74150000       0.20523000       0.10607000       0.06126000      -0.78937000
H        9.46333000       9.06783000       1.41943000       0.41129000       0.50854000       0.04645000
O        9.85380000       6.05940000       5.79407000       0.71470000      -0.33780000      -0.05904000
H       10.35537000       6.78425000       6.18494000      -0.28137000       0.33810000      -0.35128000
H        9.54467000       5.58713000       6.55806000      -0.37451000      -0.50026000       0.52234000
O        9.79343000       2.85393000       7.30072000      -0.55497000       1.09073000       1.70889000
H        9.29296000       2.30026000       6.74307000      -0.79673000      -1.56381000      -1.20541000
H       10.62214000       2.93839000       6.88023000       1.46405000       0.16317000      -0.67448000
O        1.29562000      10.06651000      10.52340000      -0.45085000      -0.44217000      -0.06190000
H        0.70829000      10.68945000      10.08905000      -0.01632000       0.11029000       0.01253000
H        0.72543000       9.29955000      10.71260000       0.41858000       0.26518000      -0.10797000
121
Lattice="100.0 0.0 0.0 0.0 100.0 0.0 0.0 0.0 100.0" Properties=species:S:1:pos:R:3:forces:R:3 config_type=reactants_in_water energy=-80256.8767558 pbc="T T T"
C        7.46842000       6.99143000       7.77866000       1.34532000       0.06469000       1.05306000
C        6.19851000       6.51702000       8.35616000      -1.06789000      -0.62994000       0.91540000
C        5.99508000       5.19868000       8.08178000       1.71746000       1.82604000      -1.07873000
H        5.56222000       7.15880000       8.97157000       0.15477000      -0.40982000      -0.24574000
C        7.11564000       4.79369000       7.18471000       0.06852000      -0.56816000       0.20272000
H        5.17124000       4.60183000       8.34314000      -0.79195000      -0.51418000       0.37298000
C        7.96205000       5.81395000       7.01834000      -0.32458000       0.58854000      -0.50877000
H        7.29167000       3.82050000       6.72156000      -0.26688000       0.22198000       0.34266000
H        8.82531000       5.88646000       6.38948000       0.31618000      -0.28802000      -0.14459000
H        8.24111000       7.20122000       8.57497000      -0.69521000      -0.32727000      -0.26761000
H        7.45586000       7.96408000       7.30849000      -0.21962000       0.09295000      -0.74472000
C        4.24041000       4.32874000       4.74949000      -1.40563000       0.20083000      -0.24641000
C        2.97097000       4.39761000       4.31807000      -0.55631000      -0.74120000       0.16539000
H        2.16096000       4.62840000       5.03004000       0.73042000       0.69268000      -0.58873000
H        2.60998000       4.10381000       3.31493000       0.53649000      -0.21428000       0.66526000
C        5.30583000       3.62629000       4.01131000       2.02553000       3.00659000       1.26670000
H        4.43910000       4.92156000       5.64846000       0.39561000      -0.68772000      -0.05775000
O        5.22740000       2.56251000       3.47906000      -1.30640000      -2.24788000      -1.23514000
C        6.66020000       4.32009000       3.89110000      -0.76472000       1.04532000       1.02728000
H        6.76080000       5.25502000       4.45408000      -0.45805000      -0.07933000      -0.38288000
H        6.75069000       4.52825000       2.83932000       0.39295000       0.14360000       0.02668000
H        7.46760000       3.74559000       4.29285000       0.16910000      -0.82120000      -0.10751000
O        2.61725000       1.45201000       2.69642000       0.28923000      -0.05101000      -1.18169000
H        2.79135000       1.23645000       1.75331000      -0.59070000       0.16880000       0.39077000
H        3.44102000       1.86319000       2.95598000       0.46548000       0.25061000       0.72997000
O        2.08907000       8.34183000      10.64923000      -0.97436000       0.04780000      -0.34688000
H        2.25865000       8.25945000       9.68636000      -0.66351000      -0.04777000       0.72348000
H        1.10886000       8.25857000      10.78503000       1.55435000       0.08742000      -0.56382000
O        2.31449000       0.59461000       6.93956000       1.51995000      -0.32815000      -0.92747000
H        3.12436000       0.81929000       6.39461000      -1.66906000      -0.21172000       0.97394000
H        1.85497000       1.41011000       7.11165000      -0.16279000       0.60141000      -0.26846000
O        0.60089000      -0.05546000       2.22300000      -1.37977000      -2.23216000       1.45225000
H        0.33538000      -0.79334000       2.86088000       0.36397000       1.55647000      -1.47320000
H        1.24370000       0.43635000       2.73654000       0.74257000       0.40006000       0.27293000
O        9.29838000       2.40651000       3.93572000       0.07035000      -0.96153000      -0.08640000
H        8.98630000       1.49842000       3.76868000       0.39203000       0.20681000       0.40656000
H        8.83026000       2.95054000       3.32106000      -0.44119000       0.43935000      -0.74147000
O        1.96723000       0.71617000      -0.08432000      -0.84857000      -0.04696000      -0.15710000
H        1.65915000      -0.10958000       0.34173000       0.12381000       0.59870000      -0.15728000
H        1.11730000       1.14839000      -0.32861000       1.00519000      -0.29373000       0.30009000
O        2.47137000       8.65800000       4.64215000       0.37347000       1.14416000      -0.45790000
H        3.31944000       9.24510000       4.61601000      -2.32779000      -1.28402000      -0.38844000