22
Lattice="100.0 0.0 0.0 0.0 100.0 0.0 0.0 0.0 100.0" Properties=species:S:1:pos:R:3:forces:R:3 config_type=vacuum energy=-11581.94101485 pbc="T T T"
C       -0.16880000       1.90776000       0.53299000      -0.86190000      -0.21119000      -1.07526000
C       -0.97319000       0.98674000       1.42447000      -0.28790000      -1.27705000       0.42811000
C        0.14161000       0.20089000       2.16464000      -2.08829000       2.37268000      -2.20183000
H       -1.81341000       1.38939000       1.98153000       0.33560000       0.27717000       0.33221000
C        1.11970000       0.11433000       1.31593000       1.71814000       0.08490000      -1.03346000
H       -0.03610000      -0.26784000       3.03970000      -0.25302000      -1.47645000       2.70080000
C        0.74291000       0.84243000       0.03021000       2.27703000      -2.03804000      -1.71464000
H        2.00780000      -0.46848000       1.45555000       0.30902000      -0.19194000      -0.08881000
H        1.61288000       1.04954000      -0.74798000      -1.78603000      -0.03171000       1.91025000
H        0.31287000       2.67808000       1.04450000       0.85804000       1.28828000       0.87983000
H       -0.73675000       2.27617000      -0.32120000      -0.25308000       0.41206000       0.25869000
C       -0.34779000      -0.11849000      -0.66712000       0.11682000       1.24278000       0.26917000
C       -1.52921000       0.00201000       0.35757000      -0.69910000      -1.57945000      -0.91837000
H       -2.46854000       0.48688000      -0.03908000       1.05033000      -0.78219000      -0.06006000
H       -1.74354000      -1.10205000       0.64186000       0.09516000       2.16659000       0.16302000
C        0.08865000      -1.51615000      -1.03181000       0.10609000      -0.06154000       0.04192000
H       -0.47641000       0.38769000      -1.61164000      -0.69609000       0.17385000      -0.38375000
O       -0.34914000      -2.45614000      -0.41370000       0.33415000      -0.44091000      -0.42962000
C        1.12821000      -1.65985000      -2.17443000       0.40799000       0.15292000       1.67911000
H        2.02948000      -1.13116000      -1.73034000      -0.78778000      -0.58235000      -0.87587000
H        0.82168000      -1.17562000      -3.10118000      -0.07143000       0.10651000       0.17223000
H        1.37213000      -2.72368000      -2.33925000      -0.15576000       0.58224000       0.08059000
22
Lattice="100.0 0.0 0.0 0.0 100.0 0.0 0.0 0.0 100.0" Properties=species:S:1:pos:R:3:forces:R:3 config_type=vacuum energy=-11580.57614828 pbc="T T T"
C        0.39329000       1.94358000       1.04554000      -1.01195000       1.72195000       1.03718000
C       -0.01812000       1.60737000       2.46662000       0.48318000      -2.30524000      -0.87631000
C        0.31486000       0.29033000       2.65368000       0.12080000       1.15184000      -1.04797000
H       -0.50301000       2.26605000       3.15099000      -0.04608000       0.32078000       0.25147000
C        0.88683000      -0.23310000       1.38730000      -0.29327000      -0.32276000       0.51214000
H        0.30501000      -0.29916000       3.55796000      -0.30357000       0.10972000       0.05289000
C        0.86643000       0.72035000       0.42948000       1.19855000      -1.08049000       1.04967000
H        1.21814000      -1.27133000       1.33108000       0.13672000       0.43822000      -0.29145000
H        1.48045000       0.77005000      -0.45237000      -0.42049000      -0.38112000      -0.39473000
H        1.30347000       2.53589000       1.18541000      -0.12784000       0.55123000      -0.33243000
H       -0.37571000       2.51410000       0.49783000       0.49704000      -0.05753000       0.12024000
C       -1.26636000      -0.48526000      -1.42942000      -2.43307000       1.66263000       2.05893000
C       -2.04916000      -0.41013000      -0.24807000       1.57063000      -0.58926000      -3.59254000
H       -2.58908000       0.50427000      -0.06499000      -0.40766000      -0.05866000      -0.11463000
H       -2.24088000      -1.25029000       0.42812000       0.92440000       0.47260000      -0.09565000
C       -0.17893000      -1.47239000      -1.56969000      -0.92906000      -1.34289000       1.48279000
H       -1.42936000       0.28979000      -2.22759000       0.60117000      -0.49631000       1.17969000
O       -0.31961000      -2.52790000      -0.96168000       0.53586000       0.39589000      -0.70331000
C        1.13222000      -1.20580000      -2.25984000       0.09461000       0.47939000       0.68677000
H        1.91442000      -1.36526000      -1.51434000      -0.10180000      -0.42155000      -0.16410000
H        1.32075000      -0.21734000      -2.64327000      -0.43044000       0.45651000      -0.22825000
H        1.20390000      -1.90691000      -3.05590000       0.39498000      -0.66157000      -0.60814000
22
Lattice="100.0 0.0 0.0 0.0 100.0 0.0 0.0 0.0 100.0" Properties=species:S:1:pos:R:3:forces:R:3 config_type=vacuum energy=-11581.28511599 pbc="T T T"
C       -0.10275000       1.85156000       1.57562000       0.18376000       1.32525000       0.55546000
C       -0.65765000       0.72255000       2.41042000      -0.48734000       0.57713000      -0.23477000
C        0.09665000      -0.33271000       2.14466000      -0.46400000      -2.85993000       0.49867000
H       -1.48516000       0.72600000       3.13151000       0.42360000       0.29017000      -0.61194000
C        1.13454000      -0.05006000       1.19138000       0.93536000       0.83790000      -0.62959000
H       -0.06505000      -1.36569000       2.52245000       0.04630000       0.97770000      -0.11370000
C        1.10090000       1.24977000       0.89320000      -0.95659000       0.58993000       0.49862000
H        1.84749000      -0.71286000       0.75175000       0.16675000      -0.57273000       0.22652000
H        1.74702000       1.88675000       0.32256000       0.25954000      -0.25672000      -0.42561000
H        0.19260000       2.70223000       2.23974000      -0.19085000      -0.45147000      -0.50081000
H       -0.75230000       2.28815000       0.78346000      -0.00018000      -0.37032000       0.68159000
C       -0.95137000      -0.16502000      -1.38893000      -0.27400000      -0.11196000      -0.26231000
C       -2.07150000      -0.32833000      -0.67976000       0.86536000       1.80144000      -0.01917000
H       -2.77628000       0.50930000      -0.69446000      -0.07785000      -0.62352000       0.09497000
H       -2.11621000      -1.07488000       0.08457000      -0.40545000      -0.61275000      -0.05085000
C        0.07530000      -1.27099000      -1.41120000      -0.15263000       0.95715000      -0.98162000
H       -0.82904000       0.73149000      -2.02412000       0.08427000      -0.76706000       0.29202000
O       -0.00040000      -2.21452000      -0.68048000      -0.18672000      -0.78187000       0.85545000
C        1.13450000      -1.24074000      -2.48440000       1.72199000      -0.95810000       1.16086000
H        2.13139000      -0.91627000      -2.10403000      -0.73053000      -0.08769000       0.37263000
H        0.96388000      -0.56069000      -3.26370000      -0.67258000       0.62331000      -1.30344000
H        1.32681000      -2.28454000      -2.79910000      -0.33919000       0.65648000      -0.19214000
22
Lattice="100.0 0.0 0.0 0.0 100.0 0.0 0.0 0.0 100.0" Properties=species:S:1:pos:R:3:forces:R:3 config_type=vacuum energy=-11581.22517081 pbc="T T T"
C        0.34671000       2.16818000       1.58192000      -0.39394000      -0.80570000      -1.19391000
C       -0.77991000       1.21949000       2.04681000       2.54574000      -1.21594000       0.03534000
C       -0.25653000      -0.04826000       2.08282000       0.37905000       1.97794000      -1.51458000
H       -1.78612000       1.53516000       2.23456000      -0.17173000       0.08944000       0.32945000
C        1.12795000      -0.03304000       1.44920000      -1.60963000       0.05216000       0.81306000
H       -0.78842000      -0.96477000       2.24154000      -0.14222000      -0.18953000       0.35697000
C        1.45150000       1.21102000       1.06956000      -1.48307000       0.05283000       1.31604000
H        1.65022000      -0.96837000       1.35017000       0.36628000       0.06641000      -0.18526000
H        2.34222000       1.55595000       0.60321000       0.53504000       0.13970000      -0.24338000
H        0.77739000       2.79127000       2.38002000      -0.31113000      -0.04844000      -0.18113000
H       -0.03524000       2.81200000       0.76311000       0.26950000      -0.09271000       0.49688000
C       -0.91278000      -0.34315000      -1.57115000      -0.92583000      -0.66951000       0.93080000
C       -2.16913000      -0.34099000      -1.11679000       1.46562000       1.38078000      -1.36794000
H       -2.83462000       0.47099000      -1.35442000      -0.11047000       0.15030000       0.25364000
H       -2.49434000      -1.14680000      -0.56253000      -0.90784000      -1.63967000       0.99137000
C       -0.04474000      -1.54213000      -1.35940000       1.40631000       0.32946000      -1.25768000
H       -0.51406000       0.52273000      -2.03723000       0.43895000       0.40266000      -0.60730000
O       -0.37053000      -2.54036000      -0.78412000      -0.89834000      -0.52677000       0.69739000
C        1.38190000      -1.47116000      -1.90392000       0.64969000       1.20955000       1.62310000
H        1.85287000      -0.71998000      -1.20235000      -0.21840000      -0.56920000      -0.81816000
H        1.56007000      -1.11756000      -2.91141000      -0.39731000       0.32102000      -0.20287000
H        1.93151000      -2.39744000      -1.75816000      -0.34451000      -0.13390000       0.16138000
22
Lattice="100.0 0.0 0.0 0.0 100.0 0.0 0.0 0.0 100.0" Properties=species:S:1:pos:R:3:forces:R:3 config_type=vacuum energy=-11580.59345095 pbc="T T T"
C       -0.05261000       1.81093000       0.86675000      -2.63016000       0.37585000       0.94912000
C       -0.90184000       0.79822000       1.69188000       2.37013000       0.11549000       0.19667000
C        0.05222000      -0.15444000       2.12334000      -1.74447000      -0.06955000      -0.62859000
H       -1.86339000       0.99107000       2.11250000      -0.11172000       0.27945000       0.59923000
C        1.18761000      -0.08520000       1.29218000       0.07933000       0.26665000      -0.14430000
H       -0.22671000      -0.99990000       2.74115000       0.27141000       0.15650000       0.10486000
C        1.00822000       0.96915000       0.43389000       1.91774000      -1.18491000      -0.64666000
H        1.96852000      -0.82403000       1.19638000      -0.07383000       0.01012000       0.22337000
H        1.64035000       1.28438000      -0.36579000       0.65574000      -0.00832000      -0.18302000
H        0.34688000       2.61874000       1.48426000      -0.14261000      -0.02916000       0.26199000
H       -0.59852000       2.23787000       0.04243000      -0.17047000       0.46819000      -0.06241000
C       -0.68868000      -0.06379000      -0.94733000      -0.59049000      -0.06373000       0.11828000
C       -1.74958000      -0.05101000      -0.05806000       0.58500000      -0.10705000      -0.14496000
H       -2.35083000       0.83771000       0.02935000      -0.45925000      -0.22782000      -0.50930000
H       -2.15429000      -0.99154000       0.34007000       0.38861000       0.57595000      -0.17137000
C        0.04851000      -1.27581000      -1.16641000       0.16455000      -3.32564000       1.09759000
H       -0.46765000       0.74192000      -1.61433000      -0.09226000       0.43175000      -0.17414000
O       -0.10268000      -2.26903000      -0.42164000      -0.10800000       1.59027000      -0.69195000
C        1.02504000      -1.45122000      -2.30968000       0.46701000       0.98318000       0.89254000
H        1.80673000      -0.66580000      -2.20736000      -0.31707000      -0.54823000      -0.27088000
H        0.48981000      -1.28591000      -3.22199000      -0.18865000       0.14826000      -0.74291000
H        1.46174000      -2.45768000      -2.26616000      -0.16328000       0.49503000      -0.01681000
22
Lattice="100.0 0.0 0.0 0.0 100.0 0.0 0.0 0.0 100.0" Properties=species:S:1:pos:R:3:forces:R:3 config_type=vacuum energy=-11580.57614828 pbc="T T T"
C        0.39329000       1.94358000       1.04554000      -1.01195000       1.72195000       1.03718000
C       -0.01812000       1.60737000       2.46662000       0.48318000      -2.30524000      -0.87631000
C        0.31486000       0.29033000       2.65368000       0.12080000       1.15184000      -1.04797000
H       -0.50301000       2.26605000       3.15099000      -0.04608000       0.32078000       0.25147000
C        0.88683000      -0.23310000       1.38730000      -0.29327000      -0.32276000       0.51214000
H        0.30501000      -0.29916000       3.55796000      -0.30357000       0.10972000       0.05289000
C        0.86643000       0.72035000       0.42948000       1.19855000      -1.08049000       1.04967000
H        1.21814000      -1.27133000       1.33108000       0.13672000       0.43822000      -0.29145000
H        1.48045000       0.77005000      -0.45237000      -0.42049000      -0.38112000      -0.39473000
H        1.30347000       2.53589000       1.18541000      -0.12784000       0.55123000      -0.33243000
H       -0.37571000       2.51410000       0.49783000       0.49704000      -0.05753000       0.12024000
C       -1.26636000      -0.48526000      -1.42942000      -2.43307000       1.66263000       2.05893000
C       -2.04916000      -0.41013000      -0.24807000       1.57063000      -0.58926000      -3.59254000
H       -2.58908000       0.50427000      -0.06499000      -0.40766000      -0.05866000      -0.11463000
H       -2.24088000      -1.25029000       0.42812000       0.92440000       0.47260000      -0.09565000
C       -0.17893000      -1.47239000      -1.56969000      -0.92906000      -1.34289000       1.48279000
H       -1.42936000       0.28979000      -2.22759000       0.60117000      -0.49631000       1.17969000
O       -0.31961000      -2.52790000      -0.96168000       0.53586000       0.39589000      -0.70331000
C        1.13222000      -1.20580000      -2.25984000       0.09461000       0.47939000       0.68677000
H        1.91442000      -1.36526000      -1.51434000      -0.10180000      -0.42155000      -0.16410000
H        1.32075000      -0.21734000      -2.64327000      -0.43044000       0.45651000      -0.22825000
H        1.20390000      -1.90691000      -3.05590000       0.39498000      -0.66157000      -0.60814000
22
Lattice="100.0 0.0 0.0 0.0 100.0 0.0 0.0 0.0 100.0" Properties=species:S:1:pos:R:3:forces:R:3 config_type=vacuum energy=-11581.22517081 pbc="T T T"
C        0.34671000       2.16818000       1.58192000      -0.39394000      -0.80570000      -1.19391000
C       -0.77991000       1.21949000       2.04681000       2.54574000      -1.21594000       0.03534000
C       -0.25653000      -0.04826000       2.08282000       0.37905000       1.97794000      -1.51458000
H       -1.78612000       1.53516000       2.23456000      -0.17173000       0.08944000       0.32945000
C        1.12795000      -0.03304000       1.44920000      -1.60963000       0.05216000       0.81306000
H       -0.78842000      -0.96477000       2.24154000      -0.14222000      -0.18953000       0.35697000
C        1.45150000       1.21102000       1.06956000      -1.48307000       0.05283000       1.31604000
H        1.65022000      -0.96837000       1.35017000       0.36628000       0.06641000      -0.18526000
H        2.34222000       1.55595000       0.60321000       0.53504000       0.13970000      -0.24338000
H        0.77739000       2.79127000       2.38002000      -0.31113000      -0.04844000      -0.18113000
H       -0.03524000       2.81200000       0.76311000       0.26950000      -0.09271000       0.49688000
C       -0.91278000      -0.34315000      -1.57115000      -0.92583000      -0.66951000       0.93080000
C       -2.16913000      -0.34099000      -1.11679000       1.46562000       1.38078000      -1.36794000
H       -2.83462000       0.47099000      -1.35442000      -0.11047000       0.15030000       0.25364000
H       -2.49434000      -1.14680000      -0.56253000      -0.90784000      -1.63967000       0.99137000
C       -0.04474000      -1.54213000      -1.35940000       1.40631000       0.32946000      -1.25768000
H       -0.51406000       0.52273000      -2.03723000       0.43895000       0.40266000      -0.60730000
O       -0.37053000      -2.54036000      -0.78412000      -0.89834000      -0.52677000       0.69739000
C        1.38190000      -1.47116000      -1.90392000       0.64969000       1.20955000       1.62310000
H        1.85287000      -0.71998000      -1.20235000      -0.21840000      -0.56920000      -0.81816000
H        1.56007000      -1.11756000      -2.91141000      -0.39731000       0.32102000      -0.20287000
H        1.93151000      -2.39744000      -1.75816000      -0.34451000      -0.13390000       0.16138000
22
Lattice="100.0 0.0 0.0 0.0 100.0 0.0 0.0 0.0 100.0" Properties=species:S:1:pos:R:3:forces:R:3 config_type=vacuum energy=-11580.99617362 pbc="T T T"
C       -0.55624000       2.28077000       0.89474000      -1.85742000       0.27917000      -1.86605000
C       -1.29960000       1.02726000       1.24542000      -0.95791000       0.71044000      -0.06246000
C       -0.43040000       0.09900000       1.54288000       1.44754000      -0.42225000       0.52145000
H       -2.35890000       0.84908000       1.15142000      -0.12700000       0.33902000       0.17255000
C        0.91555000       0.63636000       1.35505000       0.77427000      -1.24573000       1.26438000
H       -0.61612000      -0.86365000       1.92447000      -0.33265000      -1.09448000       0.01063000
C        0.85524000       1.89031000       0.94584000       0.30449000       0.17215000       0.52990000
H        1.82195000       0.09241000       1.64503000      -0.42884000       0.27004000      -0.35200000
H        1.71502000       2.49544000       0.80802000       0.33476000       0.66366000      -0.22348000
H       -0.87508000       3.10739000       1.52707000       0.23718000       0.18879000      -0.05889000
H       -0.90341000       2.49036000      -0.15149000       0.42132000       0.43462000       0.60810000
C       -0.86038000      -1.17563000      -1.34671000      -0.24130000       1.93818000      -1.58349000
C       -1.93483000      -1.70774000      -0.79472000       0.10116000       0.31959000      -0.13515000
H       -2.93697000      -1.35657000      -1.06968000       0.47182000      -0.32049000       0.31104000
H       -1.72130000      -2.38996000       0.00513000      -0.55387000      -0.62349000       0.12023000
C        0.52363000      -1.56613000      -0.96485000      -0.83970000       1.05656000       0.21104000
H       -1.00391000      -0.27696000      -2.00894000       0.41774000      -1.18373000       0.42082000
O        0.69617000      -2.56463000      -0.33214000       0.21660000      -1.57052000       0.69097000
C        1.69406000      -0.67713000      -1.20237000       1.70297000       0.13961000      -0.67330000
H        1.53996000       0.33548000      -1.59965000      -0.39599000      -0.21143000       0.67398000
H        2.28811000      -1.13807000      -2.02719000      -0.16163000      -0.07305000       0.74518000
H        2.29044000      -0.70290000      -0.24164000      -0.53787000       0.24256000      -1.55594000
