22
Lattice="100.0 0.0 0.0 0.0 100.0 0.0 0.0 0.0 100.0" Properties=species:S:1:pos:R:3:forces:R:3 config_type=vacuum energy=-11581.09586806 pbc="T T T"
C        1.24772000       0.97823000       1.93518000       1.26645000       2.42235000       1.04644000
C        1.09178000      -0.39035000       2.37981000       0.56326000      -1.85555000      -0.16400000
C        1.38077000      -1.20211000       1.34916000      -0.22042000      -0.79916000      -0.53415000
H        0.89798000      -0.79711000       3.35293000      -0.25227000       0.36870000       0.37055000
C        1.69355000      -0.40355000       0.15593000       1.10175000      -0.28858000      -0.13526000
H        1.32778000      -2.29815000       1.34008000       0.11748000       0.58295000       0.11971000
C        1.67926000       0.88716000       0.52453000      -1.12463000       0.31842000      -0.73809000
H        2.06417000      -0.81112000      -0.79982000      -0.60763000       0.22338000       0.58498000
H        1.66631000       1.78428000      -0.08714000       0.58403000      -0.30838000      -0.06427000
H        2.03322000       1.60913000       2.48659000      -0.93000000      -1.07624000      -0.37142000
H        0.34948000       1.57312000       2.05922000      -0.36916000       0.11336000      -0.04734000
C       -1.63454000       0.19060000      -0.14956000       0.02009000      -1.03840000       0.08256000
C       -1.94595000      -0.54349000       0.92236000       0.04731000      -1.13445000      -1.86703000
H       -2.34481000      -0.08456000       1.79688000       0.09010000       0.09479000       0.63797000
H       -1.91055000      -1.65869000       0.78316000      -0.12175000       1.28856000       0.49487000
C       -1.25110000      -0.38402000      -1.48219000      -1.73924000      -3.98703000       2.80130000
H       -1.64481000       1.23589000      -0.12209000      -0.15265000       1.54261000       0.27448000
O       -1.51075000      -1.59964000      -1.65726000       0.93865000       2.83608000      -0.46674000
C       -0.57629000       0.46145000      -2.42482000       1.30123000       2.31206000      -0.95821000
H       -0.92610000       0.20041000      -3.41333000       0.16943000       0.14013000      -0.39081000
H        0.51134000       0.26937000      -2.32618000      -0.54581000      -0.19504000      -0.25385000
H       -0.65218000       1.58779000      -2.22345000      -0.37749000      -1.66883000      -0.24561000
22
Lattice="100.0 0.0 0.0 0.0 100.0 0.0 0.0 0.0 100.0" Properties=species:S:1:pos:R:3:forces:R:3 config_type=vacuum energy=-11581.08430568 pbc="T T T"
C        1.09293000       2.17091000       1.89554000      -0.15394000       1.48747000       2.15851000
C       -0.02887000       1.43729000       2.58328000      -0.08482000       0.38687000       0.26678000
C        0.11129000       0.13225000       2.37161000      -0.39941000      -1.54997000      -0.99723000
H       -0.77670000       1.91854000       3.19302000      -0.15652000       0.06937000      -0.21779000
C        1.34634000      -0.06607000       1.57583000      -0.25838000      -0.15864000       0.49114000
H       -0.60967000      -0.71429000       2.52157000       0.88277000       1.13853000       0.34937000
C        1.94668000       1.10691000       1.37030000       0.67120000      -0.03827000      -1.44938000
H        1.68950000      -1.01759000       1.23098000       0.13357000      -0.34152000      -0.05345000
H        2.82962000       1.29752000       0.74228000      -0.46182000      -0.17635000       0.51649000
H        1.60111000       2.86971000       2.61280000      -0.13329000      -0.65838000      -0.40377000
H        0.68633000       2.87284000       1.17612000      -0.11416000      -0.06139000      -0.57588000
C       -1.59404000      -0.67628000      -2.20841000       1.86500000       1.18239000       0.86774000
C       -2.65190000      -1.39628000      -2.39807000       0.31342000      -2.01381000       0.86235000
H       -3.54897000      -1.18958000      -2.83826000      -1.97265000       1.17600000      -1.34465000
H       -2.59431000      -2.39735000      -1.98364000      -0.09676000      -0.03720000      -0.01264000
C       -0.50065000      -1.36836000      -1.41832000       0.36214000      -1.26128000       1.62366000
H       -1.43769000       0.38128000      -2.48403000      -0.14649000      -0.76465000      -0.09722000
O       -0.76922000      -2.28737000      -0.61255000       0.93143000       2.39678000      -2.11088000
C        0.94728000      -0.83162000      -1.62228000      -0.82350000      -2.18652000       0.63701000
H        0.94411000       0.17133000      -1.24209000       0.37539000       0.51712000       0.10779000
H        1.21488000      -0.87433000      -2.67207000      -0.07618000       0.12040000      -0.21962000
H        1.64840000      -1.50099000      -1.06967000      -0.59459000       0.78526000      -0.29767000
22
Lattice="100.0 0.0 0.0 0.0 100.0 0.0 0.0 0.0 100.0" Properties=species:S:1:pos:R:3:forces:R:3 config_type=vacuum energy=-11581.17237259 pbc="T T T"
C        0.12977000       1.99169000       1.84767000      -0.49662000       1.64920000       1.23649000
C       -0.18636000       0.72480000       2.60027000       1.49678000      -0.44773000      -0.87987000
C        0.92734000      -0.04526000       2.47321000      -0.56838000      -0.97938000       1.26100000
H       -1.13225000       0.46945000       3.05633000       0.15494000       0.03542000      -0.04125000
C        1.97595000       0.66222000       1.77395000       1.05348000      -0.50149000       0.42768000
H        1.15177000      -1.02984000       2.93331000      -0.60060000       0.69974000      -0.43282000
C        1.57071000       1.87400000       1.45137000      -0.79559000       0.92085000      -1.16401000
H        2.98498000       0.29059000       1.67208000      -0.01371000      -0.15250000      -0.11386000
H        2.14273000       2.67147000       0.96986000      -0.31308000      -0.39693000       0.19430000
H        0.07150000       2.91620000       2.50012000      -0.31392000      -0.93274000      -0.40280000
H       -0.60186000       2.16600000       1.05348000       0.27752000       0.05084000      -0.18627000
C       -1.49598000      -0.68416000      -2.27551000       1.69705000       0.50562000       0.63608000
C       -2.64965000      -1.25127000      -2.49713000       1.10965000      -1.77452000       0.56549000
H       -3.46986000      -0.85408000      -2.94860000      -1.96012000       1.33932000      -1.32287000
H       -2.70085000      -2.29415000      -2.20588000      -0.32000000       0.05762000       0.21429000
C       -0.48100000      -1.46020000      -1.49457000       0.20359000      -0.73170000       0.06823000
H       -1.14532000       0.30030000      -2.53510000      -0.48545000       0.35963000      -0.33376000
O       -0.83241000      -2.38923000      -0.80594000      -0.09957000      -0.26856000       0.15322000
C        1.00059000      -1.13400000      -1.56787000      -1.08280000      -0.73380000      -0.59771000
H        1.11978000      -0.21792000      -2.11468000       0.60867000       0.38904000      -0.10233000
H        1.48233000      -1.99014000      -2.08185000      -0.17405000       0.63793000       0.25181000
H        1.33779000      -1.10145000      -0.55000000       0.43756000       0.28695000       0.32896000
22
Lattice="100.0 0.0 0.0 0.0 100.0 0.0 0.0 0.0 100.0" Properties=species:S:1:pos:R:3:forces:R:3 config_type=vacuum energy=-11580.93984791 pbc="T T T"
C        0.74328000       1.89110000       1.36103000       0.83114000      -0.06996000       0.27756000
C       -0.51616000       1.92788000       2.13917000      -0.14819000      -2.45441000       0.58943000
C       -0.91242000       0.67396000       2.53421000       2.00630000       0.60548000      -1.76542000
H       -0.92536000       2.85193000       2.35136000      -1.20221000       1.50768000       0.59173000
C        0.13215000      -0.27099000       1.94986000      -0.71759000       0.43047000       1.17357000
H       -1.79984000       0.33760000       3.04183000       0.01286000       0.23055000       0.21821000
C        1.02525000       0.43396000       1.26375000       1.34201000      -0.57361000      -0.99780000
H        0.23532000      -1.32261000       2.18450000      -0.33420000       0.00334000      -0.24923000
H        1.89039000       0.01167000       0.69621000      -0.83930000       0.43667000       0.73228000
H        1.58917000       2.36282000       1.93945000      -0.77648000      -0.23631000      -0.52827000
H        0.65492000       2.41909000       0.40740000       0.09403000      -0.07620000       0.03496000
C       -0.25342000      -0.21995000      -1.62697000      -0.93702000       0.19332000       0.60836000
C       -1.42197000       0.17668000      -1.08955000       0.27067000      -0.38651000       0.03998000
H       -1.86048000       1.18336000      -1.24368000       0.59823000      -0.73349000       0.52238000
H       -1.93739000      -0.57700000      -0.44391000       0.02978000       0.76843000      -1.07306000
C        0.09066000      -1.65937000      -1.63717000      -1.32694000      -3.22458000       1.11684000
H        0.52061000       0.45572000      -1.96850000      -0.38077000       0.13268000      -0.57813000
O       -0.65730000      -2.57394000      -1.22713000       1.04006000       2.37052000      -0.74781000
C        1.47962000      -2.03102000      -2.07576000      -0.42450000       1.34196000      -0.15049000
H        1.98035000      -1.63293000      -1.18036000       0.84575000      -0.36175000      -0.50331000
H        1.71977000      -1.42174000      -2.95280000       0.42369000      -0.05063000       0.25754000
H        1.65473000      -3.08094000      -2.29308000      -0.15737000       0.08914000       0.34350000
22
Lattice="100.0 0.0 0.0 0.0 100.0 0.0 0.0 0.0 100.0" Properties=species:S:1:pos:R:3:forces:R:3 config_type=vacuum energy=-11581.08430568 pbc="T T T"
C        1.09293000       2.17091000       1.89554000      -0.15394000       1.48747000       2.15851000
C       -0.02887000       1.43729000       2.58328000      -0.08482000       0.38687000       0.26678000
C        0.11129000       0.13225000       2.37161000      -0.39941000      -1.54997000      -0.99723000
H       -0.77670000       1.91854000       3.19302000      -0.15652000       0.06937000      -0.21779000
C        1.34634000      -0.06607000       1.57583000      -0.25838000      -0.15864000       0.49114000
H       -0.60967000      -0.71429000       2.52157000       0.88277000       1.13853000       0.34937000
C        1.94668000       1.10691000       1.37030000       0.67120000      -0.03827000      -1.44938000
H        1.68950000      -1.01759000       1.23098000       0.13357000      -0.34152000      -0.05345000
H        2.82962000       1.29752000       0.74228000      -0.46182000      -0.17635000       0.51649000
H        1.60111000       2.86971000       2.61280000      -0.13329000      -0.65838000      -0.40377000
H        0.68633000       2.87284000       1.17612000      -0.11416000      -0.06139000      -0.57588000
C       -1.59404000      -0.67628000      -2.20841000       1.86500000       1.18239000       0.86774000
C       -2.65190000      -1.39628000      -2.39807000       0.31342000      -2.01381000       0.86235000
H       -3.54897000      -1.18958000      -2.83826000      -1.97265000       1.17600000      -1.34465000
H       -2.59431000      -2.39735000      -1.98364000      -0.09676000      -0.03720000      -0.01264000
C       -0.50065000      -1.36836000      -1.41832000       0.36214000      -1.26128000       1.62366000
H       -1.43769000       0.38128000      -2.48403000      -0.14649000      -0.76465000      -0.09722000
O       -0.76922000      -2.28737000      -0.61255000       0.93143000       2.39678000      -2.11088000
C        0.94728000      -0.83162000      -1.62228000      -0.82350000      -2.18652000       0.63701000
H        0.94411000       0.17133000      -1.24209000       0.37539000       0.51712000       0.10779000
H        1.21488000      -0.87433000      -2.67207000      -0.07618000       0.12040000      -0.21962000
H        1.64840000      -1.50099000      -1.06967000      -0.59459000       0.78526000      -0.29767000
22
Lattice="100.0 0.0 0.0 0.0 100.0 0.0 0.0 0.0 100.0" Properties=species:S:1:pos:R:3:forces:R:3 config_type=vacuum energy=-11580.93984791 pbc="T T T"
C        0.74328000       1.89110000       1.36103000       0.83114000      -0.06996000       0.27756000
C       -0.51616000       1.92788000       2.13917000      -0.14819000      -2.45441000       0.58943000
C       -0.91242000       0.67396000       2.53421000       2.00630000       0.60548000      -1.76542000
H       -0.92536000       2.85193000       2.35136000      -1.20221000       1.50768000       0.59173000
C        0.13215000      -0.27099000       1.94986000      -0.71759000       0.43047000       1.17357000
H       -1.79984000       0.33760000       3.04183000       0.01286000       0.23055000       0.21821000
C        1.02525000       0.43396000       1.26375000       1.34201000      -0.57361000      -0.99780000
H        0.23532000      -1.32261000       2.18450000      -0.33420000       0.00334000      -0.24923000
H        1.89039000       0.01167000       0.69621000      -0.83930000       0.43667000       0.73228000
H        1.58917000       2.36282000       1.93945000      -0.77648000      -0.23631000      -0.52827000
H        0.65492000       2.41909000       0.40740000       0.09403000      -0.07620000       0.03496000
C       -0.25342000      -0.21995000      -1.62697000      -0.93702000       0.19332000       0.60836000
C       -1.42197000       0.17668000      -1.08955000       0.27067000      -0.38651000       0.03998000
H       -1.86048000       1.18336000      -1.24368000       0.59823000      -0.73349000       0.52238000
H       -1.93739000      -0.57700000      -0.44391000       0.02978000       0.76843000      -1.07306000
C        0.09066000      -1.65937000      -1.63717000      -1.32694000      -3.22458000       1.11684000
H        0.52061000       0.45572000      -1.96850000      -0.38077000       0.13268000      -0.57813000
O       -0.65730000      -2.57394000      -1.22713000       1.04006000       2.37052000      -0.74781000
C        1.47962000      -2.03102000      -2.07576000      -0.42450000       1.34196000      -0.15049000
H        1.98035000      -1.63293000      -1.18036000       0.84575000      -0.36175000      -0.50331000
H        1.71977000      -1.42174000      -2.95280000       0.42369000      -0.05063000       0.25754000
H        1.65473000      -3.08094000      -2.29308000      -0.15737000       0.08914000       0.34350000
22
Lattice="100.0 0.0 0.0 0.0 100.0 0.0 0.0 0.0 100.0" Properties=species:S:1:pos:R:3:forces:R:3 config_type=vacuum energy=-11580.85868406 pbc="T T T"
C       -0.28561000       1.81686000       0.83904000       0.39202000       1.18833000       0.58773000
C       -1.09393000       0.61855000       1.38751000      -0.35843000      -0.81534000       2.13602000
C        0.05274000      -0.31730000       1.95426000      -0.43559000       0.96503000      -1.15445000
H       -1.92565000       0.78223000       2.09007000       0.63301000       0.26564000       0.05199000
C        1.16325000      -0.04822000       1.25435000      -2.78149000       1.10088000      -1.54450000
H       -0.09923000      -1.19708000       2.57262000      -0.02780000       0.49046000       0.25002000
C        0.67585000       0.90373000       0.09315000      -0.22231000       0.37890000      -1.10016000
H        2.06857000      -0.56928000       1.24922000       1.16811000      -0.67056000       0.05455000
H        1.42479000       1.39429000      -0.55419000      -0.25954000      -0.33041000       0.51802000
H        0.31437000       2.44051000       1.59370000      -1.19478000      -0.96933000      -0.77926000
H       -0.88916000       2.51189000       0.17310000       0.67390000      -0.96823000       0.74210000
C       -0.53105000       0.13693000      -0.86004000       1.68081000      -0.94216000       0.85803000
C       -1.67107000       0.00262000       0.12959000      -0.17123000      -0.57797000      -1.19247000
H       -2.64563000       0.41233000      -0.17956000       0.65585000       0.45366000       0.02783000
H       -1.81319000      -1.06417000       0.07275000      -0.43221000      -0.48034000       1.19575000
C        0.15578000      -1.21486000      -1.07836000      -1.26426000      -0.41114000      -0.15102000
H       -0.89818000       0.58655000      -1.77494000       0.93482000       0.55416000      -0.23889000
O       -0.10629000      -2.21184000      -0.43609000      -1.39186000       0.08532000       0.36654000
C        1.39858000      -1.36586000      -1.85117000       0.45776000      -1.89237000      -0.19341000
H        1.80786000      -1.95944000      -0.97276000       1.50406000       1.27472000      -1.48718000
H        1.77573000      -0.42457000      -2.22120000       0.80079000      -0.12589000       0.10220000
H        1.36131000      -2.18458000      -2.64485000      -0.30639000       1.38762000       0.81493000
22
Lattice="100.0 0.0 0.0 0.0 100.0 0.0 0.0 0.0 100.0" Properties=species:S:1:pos:R:3:forces:R:3 config_type=vacuum energy=-11580.65292032 pbc="T T T"
C       -0.12122000       1.80949000       0.92667000      -0.77842000      -0.05935000       0.20285000
C       -0.90615000       0.73556000       1.72702000       1.16711000       0.43448000       0.29947000
C        0.02709000      -0.25343000       2.06569000       0.41484000       0.66362000      -0.38462000
H       -1.72308000       0.99826000       2.38981000      -0.10405000      -0.03756000      -0.30956000
C        1.15098000      -0.08146000       1.23455000       0.34591000      -0.08460000       0.41085000
H       -0.07981000      -1.05681000       2.78651000      -0.16898000       0.18595000      -0.21472000
C        0.97886000       0.98390000       0.37161000       0.03378000      -1.12604000       0.49751000
H        2.03038000      -0.70490000       1.22403000      -0.16394000      -0.31117000      -0.07892000
H        1.69857000       1.15966000      -0.40486000       0.04196000       0.75828000      -0.02716000
H        0.27467000       2.54692000       1.64171000       0.00265000      -0.19828000      -0.12303000
H       -0.72601000       2.32082000       0.18231000       0.09101000       0.17170000       0.13051000
C       -0.65436000      -0.05227000      -0.90724000      -0.47800000       0.24352000      -1.18267000
C       -1.73692000      -0.02608000      -0.06845000      -0.29087000       0.07156000       1.43423000
H       -2.36913000       0.86120000      -0.02624000      -0.19289000      -0.63797000      -0.48710000
H       -2.06668000      -0.92489000       0.46425000       0.00555000       0.39638000      -0.62079000
C        0.06286000      -1.27032000      -1.15483000       0.37072000      -3.07543000       0.34759000
H       -0.61539000       0.63774000      -1.72737000       0.25646000       0.68741000       0.00517000
O       -0.07769000      -2.25378000      -0.41567000       0.09020000       1.07645000      -0.56317000
C        1.05821000      -1.38682000      -2.32747000       0.01604000       1.50931000       1.26547000
H        1.65845000      -0.46976000      -2.20968000       0.20625000      -0.29954000      -0.27390000
H        0.58620000      -1.28051000      -3.30014000      -0.18200000      -0.37040000      -0.03537000
H        1.71521000      -2.25052000      -2.18811000      -0.47512000       0.12571000      -0.26815000
