22
Lattice="100.0 0.0 0.0 0.0 100.0 0.0 0.0 0.0 100.0" Properties=species:S:1:pos:R:3:forces:R:3 config_type=vacuum energy=-11581.47406345 pbc="T T T"
C       -0.08833000       1.82360000       0.61669000       0.65139000       0.71043000       0.20779000
C       -0.93374000       0.91306000       1.49253000      -0.57561000      -0.57381000       0.70280000
C        0.12086000       0.01369000       2.08961000      -0.23704000       1.28853000      -0.04110000
H       -1.57910000       1.33614000       2.26362000      -0.09312000       0.21241000      -0.38981000
C        1.09551000      -0.06802000       1.20894000       0.51237000      -0.15166000      -0.27644000
H       -0.10027000      -0.43402000       3.02844000       0.45515000      -0.55027000       0.50711000
C        0.65099000       0.65965000      -0.07628000       5.25078000       3.95364000       4.34114000
H        1.99344000      -0.62300000       1.27572000       0.59821000      -0.64176000       0.08489000
H        1.46646000       0.92371000      -0.76313000      -0.42226000      -0.06614000       0.19747000
H        0.57216000       2.43971000       1.23044000      -0.04559000       0.05906000      -0.16151000
H       -0.59434000       2.41618000      -0.13110000      -0.51733000       0.31488000       0.01116000
C       -0.42550000      -0.00937000      -0.55928000      -6.17136000      -4.71939000      -4.45966000
C       -1.58141000      -0.08116000       0.48056000       2.16767000      -0.12707000       1.50674000
H       -2.47907000       0.30752000       0.13784000      -1.72807000       0.46614000      -1.01596000
H       -1.70730000      -1.07572000       0.97721000       0.05086000       0.79564000      -0.82407000
C        0.05726000      -1.34785000      -1.06981000       0.34566000       0.31146000       0.23050000
H       -0.81191000       0.52032000      -1.43346000      -0.12356000       0.04267000      -0.13453000
O        0.01128000      -2.33007000      -0.37465000      -0.17686000      -0.50244000      -0.52479000
C        0.88050000      -1.30080000      -2.35457000      -1.05852000      -0.50330000       1.30682000
H        0.93610000      -0.33351000      -2.78925000       0.25198000       0.80128000      -0.22766000
H        0.42138000      -1.96531000      -3.03933000      -0.36430000      -0.72682000      -0.81813000
H        1.80862000      -1.71489000      -2.03966000       1.02560000      -0.15803000      -0.21144000
22
Lattice="100.0 0.0 0.0 0.0 100.0 0.0 0.0 0.0 100.0" Properties=species:S:1:pos:R:3:forces:R:3 config_type=vacuum energy=-11580.85868406 pbc="T T T"
C       -0.28561000       1.81686000       0.83904000       0.39202000       1.18833000       0.58773000
C       -1.09393000       0.61855000       1.38751000      -0.35843000      -0.81534000       2.13602000
C        0.05274000      -0.31730000       1.95426000      -0.43559000       0.96503000      -1.15445000
H       -1.92565000       0.78223000       2.09007000       0.63301000       0.26564000       0.05199000
C        1.16325000      -0.04822000       1.25435000      -2.78149000       1.10088000      -1.54450000
H       -0.09923000      -1.19708000       2.57262000      -0.02780000       0.49046000       0.25002000
C        0.67585000       0.90373000       0.09315000      -0.22231000       0.37890000      -1.10016000
H        2.06857000      -0.56928000       1.24922000       1.16811000      -0.67056000       0.05455000
H        1.42479000       1.39429000      -0.55419000      -0.25954000      -0.33041000       0.51802000
H        0.31437000       2.44051000       1.59370000      -1.19478000      -0.96933000      -0.77926000
H       -0.88916000       2.51189000       0.17310000       0.67390000      -0.96823000       0.74210000
C       -0.53105000       0.13693000      -0.86004000       1.68081000      -0.94216000       0.85803000
C       -1.67107000       0.00262000       0.12959000      -0.17123000      -0.57797000      -1.19247000
H       -2.64563000       0.41233000      -0.17956000       0.65585000       0.45366000       0.02783000
H       -1.81319000      -1.06417000       0.07275000      -0.43221000      -0.48034000       1.19575000
C        0.15578000      -1.21486000      -1.07836000      -1.26426000      -0.41114000      -0.15102000
H       -0.89818000       0.58655000      -1.77494000       0.93482000       0.55416000      -0.23889000
O       -0.10629000      -2.21184000      -0.43609000      -1.39186000       0.08532000       0.36654000
C        1.39858000      -1.36586000      -1.85117000       0.45776000      -1.89237000      -0.19341000
H        1.80786000      -1.95944000      -0.97276000       1.50406000       1.27472000      -1.48718000
H        1.77573000      -0.42457000      -2.22120000       0.80079000      -0.12589000       0.10220000
H        1.36131000      -2.18458000      -2.64485000      -0.30639000       1.38762000       0.81493000
22
Lattice="100.0 0.0 0.0 0.0 100.0 0.0 0.0 0.0 100.0" Properties=species:S:1:pos:R:3:forces:R:3 config_type=vacuum energy=-11580.65292032 pbc="T T T"
C       -0.12122000       1.80949000       0.92667000      -0.77842000      -0.05935000       0.20285000
C       -0.90615000       0.73556000       1.72702000       1.16711000       0.43448000       0.29947000
C        0.02709000      -0.25343000       2.06569000       0.41484000       0.66362000      -0.38462000
H       -1.72308000       0.99826000       2.38981000      -0.10405000      -0.03756000      -0.30956000
C        1.15098000      -0.08146000       1.23455000       0.34591000      -0.08460000       0.41085000
H       -0.07981000      -1.05681000       2.78651000      -0.16898000       0.18595000      -0.21472000
C        0.97886000       0.98390000       0.37161000       0.03378000      -1.12604000       0.49751000
H        2.03038000      -0.70490000       1.22403000      -0.16394000      -0.31117000      -0.07892000
H        1.69857000       1.15966000      -0.40486000       0.04196000       0.75828000      -0.02716000
H        0.27467000       2.54692000       1.64171000       0.00265000      -0.19828000      -0.12303000
H       -0.72601000       2.32082000       0.18231000       0.09101000       0.17170000       0.13051000
C       -0.65436000      -0.05227000      -0.90724000      -0.47800000       0.24352000      -1.18267000
C       -1.73692000      -0.02608000      -0.06845000      -0.29087000       0.07156000       1.43423000
H       -2.36913000       0.86120000      -0.02624000      -0.19289000      -0.63797000      -0.48710000
H       -2.06668000      -0.92489000       0.46425000       0.00555000       0.39638000      -0.62079000
C        0.06286000      -1.27032000      -1.15483000       0.37072000      -3.07543000       0.34759000
H       -0.61539000       0.63774000      -1.72737000       0.25646000       0.68741000       0.00517000
O       -0.07769000      -2.25378000      -0.41567000       0.09020000       1.07645000      -0.56317000
C        1.05821000      -1.38682000      -2.32747000       0.01604000       1.50931000       1.26547000
H        1.65845000      -0.46976000      -2.20968000       0.20625000      -0.29954000      -0.27390000
H        0.58620000      -1.28051000      -3.30014000      -0.18200000      -0.37040000      -0.03537000
H        1.71521000      -2.25052000      -2.18811000      -0.47512000       0.12571000      -0.26815000
22
Lattice="100.0 0.0 0.0 0.0 100.0 0.0 0.0 0.0 100.0" Properties=species:S:1:pos:R:3:forces:R:3 config_type=vacuum energy=-11581.02950949 pbc="T T T"
C       -0.09420000       1.79864000       0.91913000       0.23277000       0.66030000      -0.82343000
C       -0.88888000       0.77759000       1.68663000      -0.84745000       1.19055000      -0.05993000
C        0.00215000      -0.19060000       2.06899000       0.53783000      -0.99576000       0.22976000
H       -1.77463000       1.05393000       2.25964000       0.27289000      -0.13358000      -0.19645000
C        1.15569000      -0.10454000       1.27849000       0.39687000      -0.74312000       0.04266000
H       -0.23333000      -1.00220000       2.74454000       0.11430000       0.08316000      -0.02326000
C        1.02570000       0.93141000       0.38201000      -0.69376000       0.34310000       0.47961000
H        1.93696000      -0.86174000       1.24670000      -0.20855000       0.25229000       0.09849000
H        1.76751000       1.26634000      -0.31599000       0.15511000       0.09892000      -0.14726000
H        0.35433000       2.50962000       1.62739000      -0.04380000      -0.07768000      -0.02216000
H       -0.63340000       2.38137000       0.14716000       0.23669000      -0.36647000       0.56216000
C       -0.65917000      -0.04441000      -0.93673000      -0.24976000      -0.14415000       0.07614000
C       -1.71580000       0.00271000      -0.03621000       0.33728000      -1.30838000       0.15792000
H       -2.48027000       0.73889000      -0.13348000      -0.29433000       0.46629000      -0.04832000
H       -2.04106000      -0.96160000       0.38240000       0.13530000       0.58603000      -0.24198000
C        0.05670000      -1.32475000      -1.14005000       0.26396000       2.28935000      -1.42140000
H       -0.53277000       0.73537000      -1.67080000       0.11512000       0.02471000      -0.08361000
O       -0.10325000      -2.25642000      -0.42247000      -0.32609000      -1.88846000       1.40344000
C        1.02670000      -1.35130000      -2.30640000       0.65636000      -0.21630000       0.38774000
H        1.72523000      -0.50216000      -2.27453000      -0.34518000      -0.15281000       0.00668000
H        0.49019000      -1.32401000      -3.24305000      -0.27481000       0.13094000      -0.28055000
H        1.61562000      -2.27212000      -2.26339000      -0.13639000       0.14489000      -0.01441000
22
Lattice="100.0 0.0 0.0 0.0 100.0 0.0 0.0 0.0 100.0" Properties=species:S:1:pos:R:3:forces:R:3 config_type=vacuum energy=-11580.90176626 pbc="T T T"
C       -0.14355000       1.84663000       1.03136000       0.58015000      -1.14185000       0.86240000
C       -1.02999000       0.64303000       1.47972000      -0.49089000       0.32198000       0.63620000
C       -0.05772000      -0.35953000       2.01989000       0.32222000       0.59730000      -0.96290000
H       -1.80372000       0.92765000       2.17479000      -0.47238000      -0.03384000       0.02983000
C        1.08412000      -0.11919000       1.32362000       0.50512000      -1.29931000       0.19372000
H       -0.22235000      -1.27268000       2.60117000      -0.29232000       0.64593000      -0.28211000
C        0.96844000       1.01907000       0.49296000      -0.11586000      -0.87567000      -0.59883000
H        1.84685000      -0.87960000       1.18816000       0.18595000       0.35265000       0.33439000
H        1.80973000       1.36595000      -0.08973000      -0.20022000       0.15545000      -0.18560000
H        0.19902000       2.41882000       1.91775000      -0.12263000      -0.36435000      -0.35697000
H       -0.51447000       2.53200000       0.31051000      -0.82494000       0.41164000      -0.49482000
C       -0.59971000      -0.09465000      -0.91655000       0.31752000       2.06968000       1.31306000
C       -1.65970000       0.07992000       0.10805000       0.16463000      -0.53504000      -0.45608000
H       -2.40498000       0.81023000      -0.22731000       0.20197000      -0.17406000       0.14548000
H       -2.15366000      -0.88143000       0.28426000       0.09016000       0.27338000       0.21507000
C        0.11522000      -1.27387000      -1.20144000      -0.07138000      -2.05254000       1.68807000
H       -0.44866000       0.62919000      -1.67117000      -0.38778000       0.97626000      -0.63548000
O       -0.03326000      -2.30686000      -0.51670000       0.17669000       0.97641000      -0.79813000
C        1.11616000      -1.21136000      -2.30100000       0.38420000      -0.45734000      -0.83771000
H        1.68844000      -0.30043000      -2.33704000       0.15226000       0.51192000       0.34011000
H        0.63063000      -1.25131000      -3.27875000      -0.23255000      -0.26674000       0.06685000
H        1.81375000      -2.03719000      -2.22387000      -0.03520000      -0.16745000       0.02027000
22
Lattice="100.0 0.0 0.0 0.0 100.0 0.0 0.0 0.0 100.0" Properties=species:S:1:pos:R:3:forces:R:3 config_type=vacuum energy=-11580.85868406 pbc="T T T"
C       -0.28561000       1.81686000       0.83904000       0.39202000       1.18833000       0.58773000
C       -1.09393000       0.61855000       1.38751000      -0.35843000      -0.81534000       2.13602000
C        0.05274000      -0.31730000       1.95426000      -0.43559000       0.96503000      -1.15445000
H       -1.92565000       0.78223000       2.09007000       0.63301000       0.26564000       0.05199000
C        1.16325000      -0.04822000       1.25435000      -2.78149000       1.10088000      -1.54450000
H       -0.09923000      -1.19708000       2.57262000      -0.02780000       0.49046000       0.25002000
C        0.67585000       0.90373000       0.09315000      -0.22231000       0.37890000      -1.10016000
H        2.06857000      -0.56928000       1.24922000       1.16811000      -0.67056000       0.05455000
H        1.42479000       1.39429000      -0.55419000      -0.25954000      -0.33041000       0.51802000
H        0.31437000       2.44051000       1.59370000      -1.19478000      -0.96933000      -0.77926000
H       -0.88916000       2.51189000       0.17310000       0.67390000      -0.96823000       0.74210000
C       -0.53105000       0.13693000      -0.86004000       1.68081000      -0.94216000       0.85803000
C       -1.67107000       0.00262000       0.12959000      -0.17123000      -0.57797000      -1.19247000
H       -2.64563000       0.41233000      -0.17956000       0.65585000       0.45366000       0.02783000
H       -1.81319000      -1.06417000       0.07275000      -0.43221000      -0.48034000       1.19575000
C        0.15578000      -1.21486000      -1.07836000      -1.26426000      -0.41114000      -0.15102000
H       -0.89818000       0.58655000      -1.77494000       0.93482000       0.55416000      -0.23889000
O       -0.10629000      -2.21184000      -0.43609000      -1.39186000       0.08532000       0.36654000
C        1.39858000      -1.36586000      -1.85117000       0.45776000      -1.89237000      -0.19341000
H        1.80786000      -1.95944000      -0.97276000       1.50406000       1.27472000      -1.48718000
H        1.77573000      -0.42457000      -2.22120000       0.80079000      -0.12589000       0.10220000
H        1.36131000      -2.18458000      -2.64485000      -0.30639000       1.38762000       0.81493000
22
Lattice="100.0 0.0 0.0 0.0 100.0 0.0 0.0 0.0 100.0" Properties=species:S:1:pos:R:3:forces:R:3 config_type=vacuum energy=-11581.47406345 pbc="T T T"
C       -0.08833000       1.82360000       0.61669000       0.65139000       0.71043000       0.20779000
C       -0.93374000       0.91306000       1.49253000      -0.57561000      -0.57381000       0.70280000
C        0.12086000       0.01369000       2.08961000      -0.23704000       1.28853000      -0.04110000
H       -1.57910000       1.33614000       2.26362000      -0.09312000       0.21241000      -0.38981000
C        1.09551000      -0.06802000       1.20894000       0.51237000      -0.15166000      -0.27644000
H       -0.10027000      -0.43402000       3.02844000       0.45515000      -0.55027000       0.50711000
C        0.65099000       0.65965000      -0.07628000       5.25078000       3.95364000       4.34114000
H        1.99344000      -0.62300000       1.27572000       0.59821000      -0.64176000       0.08489000
H        1.46646000       0.92371000      -0.76313000      -0.42226000      -0.06614000       0.19747000
H        0.57216000       2.43971000       1.23044000      -0.04559000       0.05906000      -0.16151000
H       -0.59434000       2.41618000      -0.13110000      -0.51733000       0.31488000       0.01116000
C       -0.42550000      -0.00937000      -0.55928000      -6.17136000      -4.71939000      -4.45966000
C       -1.58141000      -0.08116000       0.48056000       2.16767000      -0.12707000       1.50674000
H       -2.47907000       0.30752000       0.13784000      -1.72807000       0.46614000      -1.01596000
H       -1.70730000      -1.07572000       0.97721000       0.05086000       0.79564000      -0.82407000
C        0.05726000      -1.34785000      -1.06981000       0.34566000       0.31146000       0.23050000
H       -0.81191000       0.52032000      -1.43346000      -0.12356000       0.04267000      -0.13453000
O        0.01128000      -2.33007000      -0.37465000      -0.17686000      -0.50244000      -0.52479000
C        0.88050000      -1.30080000      -2.35457000      -1.05852000      -0.50330000       1.30682000
H        0.93610000      -0.33351000      -2.78925000       0.25198000       0.80128000      -0.22766000
H        0.42138000      -1.96531000      -3.03933000      -0.36430000      -0.72682000      -0.81813000
H        1.80862000      -1.71489000      -2.03966000       1.02560000      -0.15803000      -0.21144000
22
Lattice="100.0 0.0 0.0 0.0 100.0 0.0 0.0 0.0 100.0" Properties=species:S:1:pos:R:3:forces:R:3 config_type=vacuum energy=-11581.58848848 pbc="T T T"
C       -0.30980000       1.73010000       1.10427000      -0.84232000      -1.04182000       0.34123000
C       -1.09369000       0.45633000       1.78285000       2.94685000       1.09240000      -3.75727000
C        0.13226000      -0.27267000       2.32607000      -0.58115000      -1.63742000      -1.52786000
H       -1.86272000       0.72048000       2.41369000      -1.70177000       0.26561000       1.31562000
C        1.12223000      -0.15004000       1.41949000       0.07931000       0.97908000      -0.62139000
H        0.04667000      -1.17407000       2.95945000       0.22528000       0.94508000       0.07638000
C        0.67900000       0.83966000       0.31679000      -0.69618000       0.39650000       0.21938000
H        2.07792000      -0.68075000       1.32418000      -0.64266000       0.09382000       0.37089000
H        1.42059000       1.37684000      -0.31888000      -0.31157000      -0.59217000       0.76073000
H        0.22166000       2.35210000       1.78818000       0.29059000       0.28954000       0.88646000
H       -0.96058000       2.39408000       0.50039000       0.27432000      -0.63537000       0.09094000
C       -0.42676000       0.16114000      -0.57010000       2.66923000      -1.62315000      -2.96668000
C       -1.51983000      -0.23407000       0.27175000      -1.86013000      -0.77924000       4.05949000
H       -2.51317000       0.11885000      -0.04623000       0.48030000       0.01260000       0.15808000
H       -1.57174000      -1.33202000       0.39713000       0.02353000       0.58302000      -0.02395000
C        0.18408000      -1.11786000      -1.34593000       0.31526000      -1.25898000      -0.31728000
H       -0.74468000       0.89495000      -1.31804000       0.29386000      -0.17738000      -0.00820000
O        0.17265000      -2.27284000      -0.93019000      -0.46116000       2.05892000       0.28912000
C        0.85791000      -0.93388000      -2.71847000      -0.84793000       0.19804000       0.09038000
H        1.93309000      -0.83497000      -2.60304000       0.09060000       0.44756000       0.04203000
H        0.40173000      -0.07521000      -3.19511000       0.36897000       0.35438000      -0.28076000
H        0.70614000      -1.80202000      -3.38243000      -0.22250000       0.22203000       0.64482000
