109
Lattice="100.0 0.0 0.0 0.0 100.0 0.0 0.0 0.0 100.0" Properties=species:S:1:pos:R:3:forces:R:3 config_type=reactants_in_water energy=-71932.82739009 pbc="T T T"
C        6.01852000       7.14410000       5.71534000       1.00752000      -0.45001000       0.34717000
C        5.66890000       6.59486000       7.06059000      -1.44747000      -0.71001000       1.03617000
C        6.61782000       5.76492000       7.53605000       0.57154000       0.05810000      -1.41680000
H        4.75691000       6.85223000       7.63886000       0.56753000      -0.30080000      -0.82220000
C        7.76194000       5.81577000       6.56315000      -0.05318000       0.19911000       0.44376000
H        6.53962000       5.03580000       8.33517000       0.12026000       0.56825000       0.21451000
C        7.43905000       6.64062000       5.54913000       0.25623000       0.02005000       0.59985000
H        8.73810000       5.33148000       6.71441000      -0.66890000      -0.00660000      -0.19166000
H        8.07273000       6.87062000       4.71285000      -0.03629000       0.00151000      -0.16780000
H        5.83306000       8.19793000       5.74100000       0.31521000       0.80712000      -0.08023000
H        5.48348000       6.81415000       4.81626000      -0.39822000      -0.16871000       0.68730000
C        4.62178000       4.47631000       4.32038000      -0.74905000       0.88112000       0.61873000
C        3.57618000       4.49698000       5.13072000      -0.84821000      -0.48249000       1.16615000
H        2.75138000       5.24173000       4.98099000       0.91799000      -0.87354000       0.19862000
H        3.52245000       3.81154000       6.01362000      -0.14274000       0.65346000      -0.97188000
C        5.85547000       3.70442000       4.45241000       0.53632000       0.69876000      -1.74820000
H        4.67927000       5.31320000       3.66953000      -0.03319000       0.30970000      -1.02615000
O        5.97224000       2.75471000       5.16899000       0.28040000      -1.17529000       0.83790000
C        6.91820000       4.21614000       3.47116000       0.63813000      -1.55184000       1.13535000
H        6.80987000       5.26197000       3.39909000       0.11501000       1.12164000      -0.43847000
H        6.78468000       3.75533000       2.49815000      -0.37705000       0.06648000      -0.13382000
H        7.93597000       3.97447000       3.81173000      -0.39518000       0.08895000       0.14783000
O        3.15284000       0.71877000       8.33893000      -0.79228000       0.36377000      -2.19538000
H        3.02282000       0.45230000       9.21930000      -0.26344000      -0.67938000       1.80043000
H        2.36530000       0.38464000       7.85271000       0.86505000       0.20485000       0.35078000
O        1.96072000      10.34266000       4.45648000      -0.22300000      -0.36869000       0.53386000
H        1.43910000       9.53389000       4.55341000       0.03479000       0.22985000       0.01245000
H        2.52263000      10.15977000       3.71118000       0.42946000      -0.18727000      -0.57321000
O        1.84564000       6.66753000       1.70527000       0.35927000       0.86148000       0.20156000
H        2.00722000       7.56688000       1.35680000      -0.33865000      -0.59335000       0.32167000
H        1.61651000       6.14165000       0.94759000      -0.15524000      -0.28613000      -0.44313000
O        1.63433000       3.31351000       7.67180000       0.32711000      -1.32596000       1.30079000
H        1.72700000       2.44216000       7.24165000      -0.13755000       0.67564000      -0.27240000
H        1.85849000       3.00951000       8.58643000      -0.10218000       0.66353000      -1.03319000
O        5.07060000       9.29784000       3.74056000      -0.75363000      -0.37712000      -1.37525000
H        5.97578000       9.02033000       3.76147000       0.81937000      -0.38451000      -0.21853000
H        4.95843000       9.87563000       4.46627000      -0.27742000       0.91656000       1.25603000
O        3.41954000       7.01768000      14.45127000       0.72416000      -1.80308000       1.28796000
H        3.37481000       7.91929000      14.66044000      -0.09937000       1.88599000       0.42374000
H        3.03528000       6.92200000      13.60866000      -0.69989000      -0.09346000      -1.71600000
O        7.62427000       7.48705000       2.36127000       1.27411000       0.93097000       0.35197000
H        8.37700000       7.97263000       1.93904000      -1.28777000      -0.74649000       0.32702000
H        6.90289000       7.42955000       1.74175000      -0.17561000      -0.07177000      -0.68604000
O        0.96173000       0.15290000       5.64747000       0.00731000       0.67054000       0.24812000
H        0.51790000       0.56667000       4.89742000       0.06782000      -0.19940000       0.16331000
H        1.15840000      -0.74461000       5.40269000      -0.05455000      -0.49614000      -0.29892000
O        4.80865000       3.62417000       1.19112000      -0.56091000      -0.89166000       0.01221000
H        4.42192000       2.73308000       1.33194000       0.46893000       0.68087000      -0.19137000
H        4.38664000       4.15101000       1.87200000      -0.10577000       0.23142000       0.22217000
O        3.19447000       9.42103000       0.94148000      -1.17399000       0.05588000      -0.45986000
H        3.58683000       8.57131000       0.82923000       0.51010000      -1.15658000      -0.34061000
H        3.84728000       9.85663000       1.45467000       0.89289000       0.90356000       0.91550000
O        5.29938000       6.00244000      -0.19741000       0.28067000       1.85400000      -1.09166000
H        5.21280000       6.46537000      -1.08234000      -0.13736000      -1.53010000       1.64165000
H        4.87697000       5.13927000      -0.13682000      -0.02088000      -0.12527000      -0.50942000
O        2.51093000       7.13410000      10.97651000       0.63356000       0.19893000       0.21646000
H        1.78213000       6.51792000      11.01871000      -0.55006000       0.09143000      -0.29887000
H        2.27639000       7.94368000      10.50490000      -0.34989000      -0.51266000       0.07126000
O       10.57295000       8.24029000       7.30216000      -1.74510000      -0.80635000      -1.07885000
H       10.09310000       8.77360000       6.58647000       0.69317000      -1.15769000       1.39603000
H       10.09327000       7.34344000       7.31822000       1.06320000       2.11380000      -0.23966000
O       11.25110000       3.09127000       6.45747000       0.54268000      -1.10373000      -1.99113000
H       11.51426000       2.31762000       5.87909000      -0.72509000       1.38688000       0.66952000
H       11.37614000       2.71192000       7.31159000      -0.05199000      -0.39703000       1.19450000
O        6.25352000       1.91941000      10.02470000       0.12117000      -1.47433000      -1.27879000
H        5.96758000       1.23979000       9.36445000       0.66993000       0.87037000       0.65594000
H        5.43313000       2.25193000      10.33966000      -0.95716000       0.67219000       0.55362000
O        2.86162000      10.28095000       7.62169000      -0.80974000      -0.07570000      -1.60371000
H        2.64008000      10.44960000       6.67614000      -0.08840000      -0.30295000       0.84801000
H        3.79723000      10.50942000       7.63799000       0.43604000       0.11088000       0.28527000
O       10.00797000       1.05140000       4.07855000       0.76531000       1.38085000      -1.33838000
H        9.08490000       1.15608000       4.33352000       0.13224000       0.08390000      -0.20497000
H       10.18770000       1.68122000       3.30832000      -0.70505000      -1.41571000       1.71728000
O        7.71974000       8.62188000       8.96507000       1.63825000      -0.47233000       0.02657000
H        8.63680000       8.93179000       9.26308000      -1.77828000      -0.29156000      -0.16112000
H        7.79360000       7.64333000       8.89814000      -0.29723000       0.94206000       0.08512000
O        4.60523000       0.64645000       3.46439000      -1.26210000      -1.12804000      -1.51852000
H        4.88196000       1.11665000       4.22240000       0.54874000       0.96770000       1.52832000
H        3.74632000       0.23576000       3.69221000       0.86959000       0.39148000      -0.11278000
O        0.56314000      12.83954000       4.60528000       0.14905000       0.72814000      -0.24202000
H        1.30577000      12.34510000       4.26474000       0.25381000      -0.17459000      -0.04927000
H       -0.01848000      12.15280000       4.88953000      -0.64472000      -0.57768000       0.36877000
O        0.74536000       4.18932000      10.87203000       1.59862000      -0.82975000       1.26008000
H        1.56165000       3.69343000      11.18414000      -1.63061000       1.01650000      -0.84493000
H        0.72552000       4.17941000       9.91829000       0.14706000      -0.11873000      -0.45479000
O        7.53167000       0.80075000       2.16572000      -0.81176000      -0.82635000       0.01961000
H        7.63160000       1.63150000       2.62614000      -0.26182000       0.18091000       0.23879000
H        6.70444000       0.38222000       2.49958000       0.80014000       0.70285000      -0.22313000
O        8.28408000       9.68295000       6.30474000      -0.76379000      -0.46778000       0.56274000
H        7.66384000       9.59897000       5.56717000       0.33679000      -0.10758000       0.27190000
H        7.90077000       9.12251000       7.03746000       0.47829000       0.64206000      -0.66928000
O        1.01809000      -2.38185000       1.40317000       1.02630000      -1.86746000      -0.30737000
H        0.91097000      -3.34515000       1.09909000       0.41732000       2.24981000       0.71299000
H        1.98276000      -2.27138000       1.61181000      -1.39736000      -0.36905000      -0.46038000
O        5.42684000      10.67712000       7.71416000       1.38491000      -1.07623000       0.41279000
H        5.85749000       9.96683000       8.27090000      -0.35193000       1.14038000      -0.84196000
H        6.12805000      11.09351000       7.18875000      -0.15197000      -0.25620000       0.44275000
O       10.09279000      10.13992000       9.75924000      -0.49216000       0.54034000      -0.20886000
H        9.77940000      11.05219000       9.54493000       0.46857000      -1.34712000      -0.06674000
H       10.27029000       9.64397000       8.94156000       0.40755000       0.50896000      -0.12365000
O        8.89663000       2.72258000       9.70085000      -0.08942000      -1.65875000      -1.09776000
H        9.41540000       3.42071000      10.02696000       0.34318000       1.43337000       0.87185000
H        7.98265000       2.70049000      10.00393000       0.03461000       0.28155000       0.23594000
O        1.46704000      11.96660000       9.22773000       0.42690000      -0.67243000       0.51559000
H        1.64227000      11.47564000      10.06938000      -0.09364000       0.54249000      -1.44382000
H        1.94058000      11.47780000       8.50099000      -0.41417000       0.24723000       1.16926000
O       11.44829000       0.72249000       9.45853000       1.56156000      -0.03173000      -0.34188000
H       12.04707000       1.38047000       9.81754000       0.62232000      -0.13888000      -0.07278000
H       10.65207000       1.07334000       9.79205000      -2.21756000       0.40730000       0.37644000
118
Lattice="100.0 0.0 0.0 0.0 100.0 0.0 0.0 0.0 100.0" Properties=species:S:1:pos:R:3:forces:R:3 config_type=reactants_in_water energy=-78174.50530244 pbc="T T T"
C        5.81183000       6.97188000       7.19502000       0.20947000       0.20222000      -0.74919000
C        5.28452000       6.18292000       8.30931000      -0.51781000       1.11793000       1.32437000
C        5.77302000       4.96375000       8.20289000      -0.16057000      -1.79595000       0.69419000
H        4.72460000       6.64078000       9.13016000      -0.01981000      -0.47462000      -0.47264000
C        6.62923000       4.82144000       7.06091000      -0.28307000      -0.20820000      -0.27962000
H        5.56526000       4.11718000       8.79760000      -0.36348000      -0.56351000       0.95015000
C        6.62305000       5.97904000       6.43394000       1.65110000       1.29936000      -0.76433000
H        7.11200000       3.93056000       6.71852000      -0.07320000      -0.12367000       0.01670000
H        7.27918000       6.19720000       5.60463000      -0.45743000       0.28965000      -0.11995000
H        6.33859000       7.84638000       7.55352000       0.40712000       0.19408000      -0.07642000
H        5.01049000       7.33655000       6.57358000      -0.43867000       0.30747000      -0.42190000
C        4.16603000       4.75840000       4.75584000      -0.14689000       1.77768000      -0.07829000
C        3.36136000       4.39879000       5.72597000       0.72621000      -0.78712000       1.32896000
H        2.69717000       5.07305000       6.20764000      -0.61187000       0.45527000      -0.14562000
H        3.55309000       3.48431000       6.29115000      -0.03065000       0.02422000      -0.54858000
C        5.24304000       4.01126000       4.15963000      -0.05752000       1.32091000      -1.10993000
H        4.17115000       5.75302000       4.36522000      -0.70691000       0.75244000      -0.13264000
O        5.27796000       2.83397000       4.27686000       0.57014000      -2.94051000       1.00362000
C        6.18599000       4.70570000       3.22819000       2.11921000      -0.57641000       1.80140000
H        7.06864000       5.14684000       3.80630000      -1.09661000      -0.79267000      -0.76722000
H        5.78636000       5.51538000       2.70338000      -0.91853000       1.05868000      -0.85346000
H        6.52237000       3.90371000       2.58788000       0.42929000       0.26159000      -0.34928000
O        1.76495000       4.98808000       2.41567000      -0.48230000       0.12660000      -0.31259000
H        1.06522000       5.58925000       2.69612000       0.20795000       0.00603000      -0.01123000
H        2.25592000       4.79479000       3.21202000       0.32965000      -0.11390000       0.31815000
O        0.95092000       6.64138000       6.51292000       0.56580000      -0.79779000      -1.09805000
H        0.69840000       5.93640000       7.08836000      -0.28623000      -1.03424000       0.36816000
H        0.74233000       7.38702000       7.02252000      -0.36971000       1.83884000       0.93944000
O        1.18864000       2.38400000       6.02540000       0.50017000       1.28249000      -0.31509000
H        2.13721000       2.31082000       6.19394000      -0.26128000      -0.12847000      -0.25493000
H        0.81992000       1.58839000       6.34490000      -0.67214000      -1.28236000       0.59520000
O        9.28575000       2.92931000       7.28724000      -0.40315000       0.34820000      -0.96662000
H        8.33849000       2.75069000       7.38248000       0.48347000      -0.11249000       0.18380000
H        9.32109000       3.30959000       6.37977000       0.15097000      -0.50612000       0.81249000
O        5.64931000       0.24342000       7.59660000      -0.80302000       1.19408000       0.49083000
H        5.73311000      -0.42910000       6.94230000       0.49286000      -0.68174000      -0.44825000
H        6.38553000       0.24457000       8.20072000       0.38722000      -0.44877000       0.01505000
O        2.89578000       1.03399000       4.18768000       0.16093000      -2.25471000       1.35282000
H        1.95201000       1.04643000       4.26905000      -0.75521000       0.36646000      -0.05387000
H        3.12488000       1.71235000       3.61015000       0.57860000       2.02001000      -1.63258000
O        7.32869000      10.69236000       5.68534000       1.50591000       0.57078000       1.47208000
H        8.05316000      10.90595000       6.32704000      -0.36311000      -1.09388000      -0.67214000
H        6.93590000      11.55829000       5.72712000      -1.08248000       0.39659000      -0.61099000
O        5.44117000       0.53377000       3.06181000       0.41020000      -0.59776000      -0.73057000
H        5.30205000       1.00512000       3.86434000       0.33886000       1.57930000       1.00901000
H        4.92468000      -0.21896000       3.29547000      -0.73395000      -1.28389000      -0.39452000
O        3.11752000       8.64459000       2.87647000      -0.73466000      -0.32925000      -1.57155000
H        3.45301000       9.19477000       3.56670000       0.26917000       0.77356000       0.35156000
H        3.02190000       9.19543000       2.06240000       0.43486000      -0.55038000       1.31429000
O        6.52554000       8.28230000       4.16816000      -1.18240000       0.70478000       1.40681000
H        6.56869000       8.89107000       4.94510000       0.12855000      -0.56527000      -0.97296000
H        7.36474000       8.31999000       3.74392000       1.11200000       0.00601000      -0.49919000
O        3.58736000       9.31243000      11.38670000      -0.23941000       2.75656000      -1.47238000
H        3.67190000       8.50959000      11.81295000       0.29592000      -2.61074000       1.39196000
H        2.71076000       9.65257000      11.58495000       0.07474000      -0.03459000       0.03227000
O        9.97403000       8.11236000       4.73266000       2.38807000       1.14240000       0.79831000
H        9.17785000       8.46238000       5.12716000      -0.33274000       0.09030000       0.18026000
H       10.69556000       8.60939000       5.26277000      -1.88568000      -1.36861000      -1.02877000
O        9.04613000       6.62693000       9.17253000       0.46846000       1.57406000       0.64057000
H        8.10576000       6.48237000       9.17107000      -0.84104000      -0.69716000      -0.38655000
H        9.06457000       7.48783000       9.64664000       0.38315000      -0.69845000      -0.04286000
O        5.71943000       9.46771000       9.34038000       0.58437000      -0.31366000       0.97013000
H        5.50236000       9.90186000       8.51600000      -0.23352000       0.17721000      -0.19399000
H        5.05652000       9.63981000      10.03049000       0.03779000      -0.00457000      -0.46649000
O        4.22254000      10.92031000       7.48753000       0.24085000      -0.18414000      -0.64527000
H        3.77284000      10.31644000       8.06464000      -0.65571000      -0.48481000       0.21810000
H        4.43952000      11.65787000       8.04072000       0.07024000       0.74374000       0.40515000
O       10.10640000       8.52431000       1.65583000       1.30657000       0.31551000       0.87893000
H       10.36784000       9.42091000       1.36071000      -0.12782000      -0.89409000       0.32817000
H       10.70673000       8.29049000       2.43256000      -1.46755000       0.53875000      -1.34056000
O       10.46351000       8.81134000       7.47371000      -1.22328000      -1.09024000       1.32349000
H        9.93877000       8.08491000       7.91160000       0.69837000       0.24775000      -1.27892000
H       10.47173000       9.39347000       8.23248000       0.34842000       0.87821000       0.05496000
O        6.46403000      -1.45933000      11.11659000       1.00749000       0.87580000      -1.97320000
H        7.11811000      -1.94568000      11.56636000       1.59531000      -0.83726000       0.59445000
H        5.74154000      -1.58575000      11.66444000      -2.52962000      -0.15925000       1.44211000
O        5.52446000      10.29706000       1.92407000       0.14950000       0.50788000      -0.37324000
H        6.14527000      10.05024000       1.24139000      -0.02436000      -0.09375000      -0.47973000
H        5.96520000       9.94407000       2.68997000      -0.06097000      -0.48274000       0.86148000
O       -2.36187000       6.90036000       9.52953000       0.44822000       1.54464000       0.69085000
H       -2.74856000       7.32688000      10.30247000       0.41990000       0.67623000      -0.01376000
H       -2.91196000       6.15460000       9.54604000      -0.94985000      -2.15301000      -0.69211000
O       10.39464000       1.75152000       1.19838000      -0.89859000       0.07493000       0.80346000
H       10.12130000       2.13300000       0.36697000       0.35329000      -0.03968000      -0.26073000
H       11.26123000       1.37018000       1.16068000       0.50209000      -0.11047000      -0.49394000
O        9.38017000      12.14643000       8.55867000       1.04960000      -1.69435000      -0.53852000
H        8.65604000      12.61508000       8.87842000      -2.11458000       1.11325000       0.97958000
H        9.95043000      12.82985000       8.25843000       1.05101000       0.70814000      -0.45472000
O        0.49377000       1.88662000      10.54705000      -1.01729000      -0.07544000      -1.25989000
H        0.23792000       0.99198000      10.28541000       0.16168000       0.29855000       0.13152000
H        1.06847000       1.79740000      11.27872000       0.92474000      -0.21579000       1.09611000
O       -0.15743000       2.15667000       2.63467000      -1.04022000      -0.40117000       1.51737000
H       -0.00989000       1.40077000       2.09887000       0.31620000      -0.76175000      -0.86768000
H        0.23454000       2.89667000       2.21941000       0.90632000       1.19509000      -0.74023000
O        6.43909000       7.33300000      -0.23743000      -0.51472000      -0.51467000      -0.04097000
H        6.04076000       7.89363000      -0.89295000      -0.13240000       0.47680000      -0.27888000
H        7.25836000       7.72508000       0.04692000       0.33185000       0.08702000       0.18369000
O       10.77824000       4.12508000       4.61601000       0.09506000      -0.61904000      -1.30526000
H       11.53610000       4.43972000       4.10237000      -0.43970000      -0.03317000       0.41518000
H       10.79793000       4.52727000       5.46449000       0.39303000       0.81365000       0.95228000
O        4.29499000       2.51703000       1.62179000      -1.06828000      -0.56318000      -1.74476000
H        4.72655000       1.76846000       2.03197000       0.78320000      -0.43363000       0.90708000
H        3.98679000       2.04995000       0.80593000       0.10766000       1.02057000       0.79109000
O        8.32204000       9.58866000      10.82197000      -0.28641000       0.79634000      -0.79966000
H        7.61253000       9.16850000      10.28333000       0.32259000       1.00803000       0.37399000
H        8.34027000      10.55689000      10.57678000      -0.16075000      -1.87454000       0.21902000
O        2.14605000       5.87377000      -0.38123000      -0.32706000       0.01203000       0.09694000
H        2.98667000       5.74159000      -0.79644000       0.65333000       0.01533000      -0.56340000
H        2.30237000       5.50212000       0.49280000      -0.30509000      -0.02205000       0.49616000
O        8.65864000       6.00420000       0.87773000       0.81754000       0.58675000      -2.80617000
H        9.21890000       6.81929000       0.93307000      -0.46762000      -0.90462000       0.14738000
H        8.61643000       5.81873000      -0.13593000       0.01355000       0.43233000       2.85614000
O        1.12066000      10.16879000       4.81334000       0.56945000       0.85567000       0.28358000
H        0.65517000       9.36187000       4.69256000      -0.37144000      -1.29133000      -0.43616000
H        0.53352000      10.67308000       5.36837000      -0.19047000       0.42993000       0.25791000
O       11.19791000       4.90652000      11.20571000      -0.44428000       0.01053000      -0.09117000
H       11.17824000       5.83144000      11.44994000       0.29146000       0.27476000       0.25579000
H       10.42504000       4.87012000      10.63236000       0.02013000      -0.30573000      -0.25870000
118
Lattice="100.0 0.0 0.0 0.0 100.0 0.0 0.0 0.0 100.0" Properties=species:S:1:pos:R:3:forces:R:3 config_type=reactants_in_water energy=-78175.2924267 pbc="T T T"
C        5.87504000       7.58338000       7.14486000       0.54297000       0.18106000       0.38081000
C        5.64998000       6.45129000       8.06847000       1.45604000      -1.54557000      -0.78119000
C        6.55156000       5.45433000       7.77623000      -1.67554000       1.48360000       0.84948000
H        4.91445000       6.41642000       8.82780000      -0.59184000      -0.03761000       0.54370000
C        7.38949000       5.91341000       6.68415000       0.81390000      -1.75505000      -0.10955000
H        6.58144000       4.53520000       8.31950000       0.32454000      -0.49298000       0.00204000
C        7.03497000       7.12677000       6.30791000      -0.63577000       1.06564000       0.26903000
H        8.17969000       5.29539000       6.25810000      -0.11264000       0.31637000       0.05247000
H        7.48756000       7.73473000       5.56910000       0.31014000       0.25333000      -0.51633000
H        6.02841000       8.51426000       7.70620000       0.23775000      -0.04705000      -0.28075000
H        5.02564000       7.78826000       6.52460000      -0.65859000       0.11466000      -0.43662000
C        4.64941000       4.29279000       4.59196000      -0.80081000       0.34492000       0.59068000
C        3.79274000       4.46311000       5.62067000       0.41888000      -0.22437000      -1.95957000
H        2.99189000       5.21847000       5.62031000       0.70572000      -0.24664000       0.23288000
H        3.83282000       3.67537000       6.32860000      -0.13867000      -0.29086000       1.11985000
C        5.69665000       3.22059000       4.54090000       0.70760000       0.65802000       0.98469000
H        4.60973000       4.97268000       3.76245000       0.24185000       0.25712000      -0.30163000
O        5.71024000       2.30337000       5.36591000      -0.42121000       0.96557000      -1.22841000
C        6.87348000       3.45393000       3.57212000       0.29718000      -1.19003000       0.92434000
H        7.38237000       4.43044000       3.76445000      -0.58811000      -0.71583000       0.01209000
H        6.56236000       3.43284000       2.51334000       0.02465000      -0.07253000       0.48125000
H        7.57858000       2.59966000       3.81135000      -0.61468000       1.09316000      -0.80315000
O        5.84798000       7.43998000      11.98650000      -0.51887000      -0.39953000      -1.51551000
H        5.39201000       7.72753000      12.74863000      -0.15315000       0.66040000       1.98024000
H        5.04634000       7.36395000      11.44991000       0.44872000      -0.21553000      -0.77316000
O        4.34535000       3.99352000      -0.13258000      -0.33472000       0.69067000       0.89393000
H        4.35682000       3.90571000      -1.07318000       0.09475000      -0.15076000      -0.90843000
H        4.07443000       4.92060000       0.01191000       0.27629000      -0.34252000       0.06330000
O        3.00782000       0.38939000      -0.22225000      -0.65650000      -0.57997000       0.77786000
H        2.30477000       0.64515000       0.39959000       0.40649000      -0.23132000      -0.30483000
H        3.28242000       1.20326000      -0.61220000       0.35167000       0.88181000      -0.38845000
O        2.40934000       0.99197000      10.08382000      -0.25517000       0.46792000       0.52393000
H        3.29485000       1.00841000      10.43609000       0.55843000       0.20183000       0.80495000
H        2.61673000       0.69533000       9.21445000      -0.19988000      -0.65166000      -1.27091000
O        2.77311000       2.13639000       3.58967000      -0.68307000       0.00238000      -0.76870000
H        3.22899000       2.04256000       4.40846000       0.40546000      -0.08445000       1.01001000
H        3.48804000       2.24340000       2.96578000       0.17005000       0.03337000      -0.43501000
O        3.94746000       7.08089000       0.45170000       1.76299000      -0.65575000      -1.21660000
H        4.66784000       7.71489000       0.55808000       0.02624000      -0.57321000      -0.04077000
H        3.27803000       7.47437000       0.96366000      -1.76132000       0.56577000       0.88819000
O        1.49693000      10.14232000       3.65465000      -1.50815000      -0.05067000      -0.04956000
H        2.41941000       9.99980000       3.72789000       1.39161000      -0.00565000       0.13117000
H        1.37015000      10.82052000       2.98841000       0.13066000       0.00611000      -0.18664000
O        8.75098000       2.17350000       8.54446000      -0.48537000      -0.12163000       0.38303000
H        9.37084000       2.68718000       9.05089000       0.25917000       0.31050000       0.65043000
H        9.07086000       2.29165000       7.65620000       0.27801000      -0.22229000      -0.74508000
O        1.43908000       7.93515000       0.79278000       0.04627000      -1.39512000      -1.11410000
H        1.25967000       7.11387000       0.27731000       0.48917000       0.94295000       0.17090000
H        0.65355000       7.96808000       1.31553000      -0.77543000       0.54656000       1.04534000
O        6.97028000      -0.05437000       6.19378000      -4.64861000      -0.52145000       1.23148000
H        6.63458000       0.79032000       5.90506000      -0.34744000       0.50992000      -0.07514000
H        7.82940000      -0.03343000       5.97757000       5.02269000      -0.01134000      -1.05200000
O        9.80121000       5.40820000       2.78546000       0.11914000      -1.26701000       0.46604000
H        9.54571000       6.26337000       2.49700000      -0.39431000       1.19961000      -0.46551000