22
Lattice="100.0 0.0 0.0 0.0 100.0 0.0 0.0 0.0 100.0" Properties=species:S:1:pos:R:3:forces:R:3 config_type=vacuum energy=-11580.59345095 pbc="T T T"
C       -0.05261000       1.81093000       0.86675000      -2.63016000       0.37585000       0.94912000
C       -0.90184000       0.79822000       1.69188000       2.37013000       0.11549000       0.19667000
C        0.05222000      -0.15444000       2.12334000      -1.74447000      -0.06955000      -0.62859000
H       -1.86339000       0.99107000       2.11250000      -0.11172000       0.27945000       0.59923000
C        1.18761000      -0.08520000       1.29218000       0.07933000       0.26665000      -0.14430000
H       -0.22671000      -0.99990000       2.74115000       0.27141000       0.15650000       0.10486000
C        1.00822000       0.96915000       0.43389000       1.91774000      -1.18491000      -0.64666000
H        1.96852000      -0.82403000       1.19638000      -0.07383000       0.01012000       0.22337000
H        1.64035000       1.28438000      -0.36579000       0.65574000      -0.00832000      -0.18302000
H        0.34688000       2.61874000       1.48426000      -0.14261000      -0.02916000       0.26199000
H       -0.59852000       2.23787000       0.04243000      -0.17047000       0.46819000      -0.06241000
C       -0.68868000      -0.06379000      -0.94733000      -0.59049000      -0.06373000       0.11828000
C       -1.74958000      -0.05101000      -0.05806000       0.58500000      -0.10705000      -0.14496000
H       -2.35083000       0.83771000       0.02935000      -0.45925000      -0.22782000      -0.50930000
H       -2.15429000      -0.99154000       0.34007000       0.38861000       0.57595000      -0.17137000
C        0.04851000      -1.27581000      -1.16641000       0.16455000      -3.32564000       1.09759000
H       -0.46765000       0.74192000      -1.61433000      -0.09226000       0.43175000      -0.17414000
O       -0.10268000      -2.26903000      -0.42164000      -0.10800000       1.59027000      -0.69195000
C        1.02504000      -1.45122000      -2.30968000       0.46701000       0.98318000       0.89254000
H        1.80673000      -0.66580000      -2.20736000      -0.31707000      -0.54823000      -0.27088000
H        0.48981000      -1.28591000      -3.22199000      -0.18865000       0.14826000      -0.74291000
H        1.46174000      -2.45768000      -2.26616000      -0.16328000       0.49503000      -0.01681000
118
Lattice="100.0 0.0 0.0 0.0 100.0 0.0 0.0 0.0 100.0" Properties=species:S:1:pos:R:3:forces:R:3 config_type=reactants_in_water energy=-78168.48932348 pbc="T T T"
C        5.68346000       7.18986000       6.64891000      -0.11207000      -0.11101000      -0.12683000
C        4.87191000       6.17740000       7.41838000       0.04156000       0.21808000       0.04748000
C        5.76285000       5.17128000       7.80558000      -1.47630000      -0.36044000      -1.34382000
H        3.99704000       6.44672000       7.99201000       0.08916000      -0.09366000      -0.06907000
C        6.91477000       5.25013000       7.02144000       0.02572000       0.24358000      -0.93388000
H        5.53927000       4.37712000       8.50069000      -0.41158000      -0.01126000      -0.70590000
C        6.78320000       6.30828000       6.13985000       0.38028000      -0.16252000       0.24486000
H        7.70367000       4.51517000       7.00683000      -0.03325000       0.03786000       0.01475000
H        7.53838000       6.63622000       5.44209000      -0.02570000       0.09505000      -0.04401000
H        6.11653000       7.89680000       7.36627000      -0.08921000       0.07084000      -0.10194000
H        5.14232000       7.75235000       5.89481000       0.11557000      -0.14123000       0.11897000
C        5.10394000       5.32733000       4.80340000      -0.09315000      -0.29579000      -0.33958000
C        4.05770000       5.36098000       5.71525000       0.02828000       0.11592000      -0.17093000
H        3.29633000       6.12216000       5.61504000      -0.05441000      -0.05705000      -0.04407000
H        3.72848000       4.41837000       6.12557000       0.05975000       0.00786000      -0.02213000
C        5.82878000       4.07143000       4.59485000      -0.24015000       0.58904000       0.05295000
H        5.23046000       6.11091000       4.06977000       0.00083000       0.05640000       0.01339000
O        5.66512000       3.10913000       5.32338000       0.00950000      -0.34832000       0.13778000
C        6.80456000       4.02397000       3.44137000      -0.02757000       0.27270000      -0.08575000
H        7.47298000       4.88474000       3.46615000       0.03661000      -0.05854000       0.08052000
H        6.25537000       4.06411000       2.49931000       0.12062000       0.11950000       0.28307000
H        7.37889000       3.10320000       3.48301000      -0.01304000       0.10577000       0.00612000
O        9.77562000       7.93860000       2.34070000      -0.58766000      -2.43995000      -0.77511000
H        9.56692000       8.05554000       1.37978000       0.26924000      -0.19185000       1.62628000
H        9.18606000       7.19920000       2.63446000       0.91559000       0.96469000      -0.24698000
O        3.14409000       5.25854000       9.75050000      -0.90704000      -0.43798000      -0.09881000
H        3.41228000       4.39089000       9.35572000      -0.83130000       0.81820000       0.37194000
H        2.15416000       5.23368000       9.75500000       1.47841000      -0.26310000      -0.02883000
O        3.34314000       2.73173000       2.79149000       1.41875000       0.00275000      -0.72186000
H        3.50680000       1.84316000       2.38620000       0.15906000       1.37395000       0.36466000
H        4.14269000       3.26468000       2.55214000      -0.86041000      -1.03968000       0.61349000
O        8.13565000       8.76797000       9.02654000      -2.91626000      -1.14758000      -0.17258000
H        7.27531000       9.15498000       8.72548000       1.26051000      -0.46012000       0.20898000
H        8.28138000       7.99206000       8.42878000      -0.33236000       1.16249000       0.74651000
O        1.47134000       8.18615000       7.70633000       0.76536000      -1.54906000       0.74129000
H        1.30783000       7.46473000       8.36469000       0.27376000       1.09191000      -0.97043000
H        2.45767000       8.26119000       7.66032000      -1.20844000       0.13912000       0.34956000
O        1.43961000       5.38389000       3.21036000      -0.63083000      -0.06695000      -1.44448000
H        1.81822000       4.94819000       2.40573000      -0.58320000       0.58045000       1.33932000
H        0.53119000       5.66628000       2.93536000       1.25175000      -0.47183000       0.41095000
O        4.61933000       9.07440000       2.64247000       1.06807000       0.13455000      -2.77623000
H        4.22539000       9.90080000       2.26500000       0.53694000      -1.42860000       0.44809000
H        5.20097000       8.72493000       1.92126000      -1.04968000       0.40692000       0.84085000
O        9.59549000       1.81773000       3.32179000      -1.88627000      -0.98032000      -0.14801000
H        9.03775000       1.09131000       3.69842000       0.68140000       0.99530000      -0.33671000
H        9.05318000       2.18808000       2.58062000       0.97742000      -0.11002000       1.20322000
O        2.56656000       2.85861000       8.38744000      -0.68060000       0.62002000      -1.72277000
H        2.80400000       2.94868000       7.43030000      -0.12075000      -0.35815000       1.27627000
H        1.63203000       2.53117000       8.38150000       1.49815000       0.15880000       0.26443000
O        2.31429000       8.01558000       1.72729000      -2.01447000       1.06603000       0.51733000
H        1.52599000       8.42458000       1.28923000       0.98894000      -0.55035000       0.71136000
H        2.18405000       8.19708000       2.69201000       0.20211000      -0.04881000      -1.16944000
O        7.46171000       0.05433000       8.58636000      -1.70143000       0.46312000      -0.58874000
H        6.65527000       0.46733000       8.98596000       1.04118000      -0.48012000      -0.76223000
H        7.44553000       0.34394000       7.63954000       0.05521000      -0.28978000       1.32135000
O        1.63221000       0.59298000       9.00892000      -0.20381000      -2.32772000      -0.68335000
H        2.37773000       0.04347000       9.35942000      -1.04071000       1.08480000      -0.31591000
H        1.24352000       0.04753000       8.27953000       0.51353000       0.58192000       1.05208000
O        9.65703000       9.60250000       7.55333000       2.56230000      -0.16584000      -0.97795000
H       10.50273000       9.88432000       7.98458000      -1.08085000      -0.41930000      -0.66083000
H        9.81049000       8.65753000       7.30020000       0.06654000       1.43402000       0.16547000
O        0.95772000       2.24512000       2.10571000       0.61346000      -0.69180000      -1.12723000
H        1.40956000       1.36771000       2.18695000      -0.66976000       1.32576000      -0.08954000
H        1.62686000       2.82919000       1.66788000      -0.86582000      -1.04077000       1.00996000
O       10.75336000       3.58863000       1.88224000      -0.06410000       0.15060000      -1.83236000
H       10.77692000       2.74188000       1.36935000       0.04941000       0.90670000       0.64323000
H       10.73735000       4.29723000       1.19070000       0.11589000      -0.99309000       0.91588000
O        9.42349000       7.31664000      10.72414000      -0.61782000       0.42574000      -0.54897000
H        8.76670000       6.89827000      10.11242000       0.86128000       0.60943000       1.09368000
H        9.24969000       8.28852000      10.64770000       0.02974000      -1.69068000       0.09147000
O        9.34598000       1.76119000       9.02541000      -0.01303000       1.95380000      -0.45024000
H        9.95386000       2.45557000       8.66634000      -0.84626000      -0.79132000       0.58354000
H        8.47609000       2.22273000       9.12956000       1.27061000      -0.69955000      -0.26062000
O        3.48747000       0.54575000       4.69708000       0.75600000       0.26676000      -1.21572000
H        4.23990000       0.18489000       4.16393000      -0.98742000       0.66900000       0.88347000
H        3.40094000       1.48618000       4.39928000       0.23560000      -0.87006000       0.42392000
O        8.25740000       9.32414000       4.34689000      -0.01240000       1.39058000      -0.34307000
H        8.65190000      10.16520000       4.68979000      -0.54646000      -1.25794000      -0.42661000
H        7.95240000       9.54815000       3.43180000       0.58215000      -0.27022000       1.13661000
O        0.91530000       3.63358000       5.54554000       0.57460000      -0.85561000       1.51072000
H        0.68500000       2.73545000       5.89330000       0.34569000       1.18790000      -0.50236000
H        1.59659000       3.97690000       6.17686000      -1.05007000      -0.33790000      -0.94696000
O        7.11859000       5.18498000       9.46300000       0.82389000       0.44828000       3.73154000
H        6.51397000       5.94353000       9.66214000       0.75133000      -0.98523000      -0.04315000
H        6.97389000       4.54991000      10.20888000       0.25723000       0.93107000      -0.58972000
O        4.67041000       9.84700000       4.75658000      -0.12474000      -0.24188000       2.66099000
H        4.11518000       9.02729000       4.77677000       0.80128000       1.19181000      -0.20353000
H        5.09643000       9.88019000       5.64989000      -0.67507000      -0.11727000      -1.14837000
O        0.63239000      10.31295000       6.03172000       0.12415000       0.69106000       1.42726000
H        0.05603000      10.81108000       6.66440000       0.88869000      -0.82259000      -0.74697000
H        1.32322000       9.89286000       6.60345000      -1.24476000       0.31701000      -0.56161000
O        9.02112000       9.98756000       1.61986000       0.33328000       2.39395000      -1.95636000
H        8.86243000      10.09515000       0.64834000       0.09415000       0.23149000       1.25371000
H        9.80534000      10.56209000       1.80830000      -1.04305000      -0.85107000      -0.18606000
O        5.49181000       2.48836000       1.20458000       0.87704000       0.46732000      -1.61214000
H        5.20462000       3.19072000       0.56832000       0.43431000      -1.02034000       0.60982000
H        6.43374000       2.30338000       0.96139000      -1.24621000       0.32150000       0.27051000
O        2.10713000      10.09873000       3.45749000       0.35938000       1.54118000      -1.09679000
H        1.80120000      10.34586000       2.54867000       0.42829000      -0.27407000       1.31217000
H        2.84393000      10.73116000       3.65179000      -0.92543000      -0.92166000       0.06839000
O        3.13853000       9.30092000       9.64534000      -0.40358000      -0.52672000       3.05185000
H        2.59983000       9.96362000      10.14656000       0.60895000      -0.98573000      -0.67172000
H        3.28525000       8.56271000      10.28886000      -0.25459000       0.95034000      -0.64300000
O        9.75622000       0.86721000       0.75880000      -0.84571000      -1.61633000      -0.43689000
H        9.92625000       0.09889000       0.15764000      -0.20897000       1.07345000       0.77446000
H        9.04437000       0.55103000       1.37026000       1.27901000       0.27645000      -0.76212000
O        3.59012000       9.95907000       7.54390000       1.37952000       2.28155000      -1.43836000
H        4.23814000      10.34810000       8.18369000      -1.17386000      -0.67979000      -0.73518000
H        3.50252000      10.64273000       6.83289000       0.16231000      -0.91035000       0.60763000
O        4.33805000       0.90304000       9.81208000       1.23313000      -1.34116000       0.04835000
H        5.05290000       0.74684000      10.47932000      -1.02097000       0.03357000      -0.74806000
H        4.41289000       0.14023000       9.18510000       0.12779000       1.05521000       0.73308000
O        8.37400000      10.88620000      10.97364000      -0.71122000      -0.94348000      -0.78906000
H        7.39839000      10.74951000      10.87316000       1.43661000       0.07723000       0.12609000
H        8.78201000      10.21397000      10.37178000      -0.76959000       0.98401000       0.56503000
O        2.99878000       6.28877000       0.18209000      -0.35746000      -2.23094000      -0.22348000
H        2.02212000       6.23685000       0.33717000       1.52423000       0.20162000       0.04782000
H        3.36834000       5.50605000       0.66311000      -0.60758000       1.20560000      -0.55974000
22
Lattice="100.0 0.0 0.0 0.0 100.0 0.0 0.0 0.0 100.0" Properties=species:S:1:pos:R:3:forces:R:3 config_type=vacuum energy=-11580.97977033 pbc="T T T"
C       -0.02324000       0.89244000       1.09470000      -0.06596000       0.66130000      -0.05204000
C        1.27874000       0.94671000       1.88476000      -0.00048000      -0.99473000      -0.12549000
C        1.14986000       1.78267000       2.91003000      -0.84058000       0.15817000      -0.47063000
H        2.22924000       0.46155000       1.67045000      -0.60047000      -0.36271000      -0.27712000
C       -0.15453000       2.42086000       2.76779000      -1.44191000       2.24167000       2.44358000
H        1.86289000       1.97885000       3.68339000       0.25814000       0.25315000       0.10607000
C       -0.84736000       2.01356000       1.70226000       0.34434000      -0.82798000       0.32569000
H       -0.54359000       3.16498000       3.54196000       0.59435000      -0.95081000      -1.28643000
H       -1.84260000       2.33357000       1.36322000       0.66580000      -0.23950000       0.30411000
H       -0.62152000      -0.04772000       1.06755000       0.91862000       0.49250000       0.06827000
H        0.21019000       1.20352000       0.09658000       0.11213000      -0.29360000      -1.03909000
C       -1.10985000      -2.41760000      -2.28425000       1.53094000       0.81231000      -1.10915000
C       -2.14013000      -2.72276000      -1.52426000       1.01209000       0.38390000       1.13674000
H       -2.98766000      -3.19032000      -1.91409000      -1.26707000      -0.49137000      -0.62056000
H       -2.11663000      -2.51685000      -0.44875000       0.11365000      -0.16974000      -0.41033000
C        0.17377000      -1.77583000      -1.73769000      -2.78534000      -0.37306000       1.14515000
H       -1.10924000      -2.49036000      -3.38014000      -0.28769000      -0.39741000       0.44883000
O        0.30170000      -1.68134000      -0.54310000       0.37591000      -0.30223000       0.64604000
C        1.10687000      -1.13449000      -2.62517000       1.30787000       0.45742000      -1.99018000
H        1.01913000      -1.35816000      -3.67936000       0.03361000      -0.84284000      -0.20038000
H        2.12246000      -1.22204000      -2.29284000       0.52618000      -0.56213000       0.20827000
H        0.99128000      -0.07610000      -2.67879000      -0.68722000       1.06454000       0.61922000
22
Lattice="100.0 0.0 0.0 0.0 100.0 0.0 0.0 0.0 100.0" Properties=species:S:1:pos:R:3:forces:R:3 config_type=vacuum energy=-11581.94101485 pbc="T T T"
C       -0.16880000       1.90776000       0.53299000      -0.86190000      -0.21119000      -1.07526000
C       -0.97319000       0.98674000       1.42447000      -0.28790000      -1.27705000       0.42811000
C        0.14161000       0.20089000       2.16464000      -2.08829000       2.37268000      -2.20183000
H       -1.81341000       1.38939000       1.98153000       0.33560000       0.27717000       0.33221000
C        1.11970000       0.11433000       1.31593000       1.71814000       0.08490000      -1.03346000
H       -0.03610000      -0.26784000       3.03970000      -0.25302000      -1.47645000       2.70080000
C        0.74291000       0.84243000       0.03021000       2.27703000      -2.03804000      -1.71464000
H        2.00780000      -0.46848000       1.45555000       0.30902000      -0.19194000      -0.08881000
H        1.61288000       1.04954000      -0.74798000      -1.78603000      -0.03171000       1.91025000
H        0.31287000       2.67808000       1.04450000       0.85804000       1.28828000       0.87983000
H       -0.73675000       2.27617000      -0.32120000      -0.25308000       0.41206000       0.25869000
C       -0.34779000      -0.11849000      -0.66712000       0.11682000       1.24278000       0.26917000
C       -1.52921000       0.00201000       0.35757000      -0.69910000      -1.57945000      -0.91837000
H       -2.46854000       0.48688000      -0.03908000       1.05033000      -0.78219000      -0.06006000
H       -1.74354000      -1.10205000       0.64186000       0.09516000       2.16659000       0.16302000
C        0.08865000      -1.51615000      -1.03181000       0.10609000      -0.06154000       0.04192000
H       -0.47641000       0.38769000      -1.61164000      -0.69609000       0.17385000      -0.38375000
O       -0.34914000      -2.45614000      -0.41370000       0.33415000      -0.44091000      -0.42962000
C        1.12821000      -1.65985000      -2.17443000       0.40799000       0.15292000       1.67911000
H        2.02948000      -1.13116000      -1.73034000      -0.78778000      -0.58235000      -0.87587000
H        0.82168000      -1.17562000      -3.10118000      -0.07143000       0.10651000       0.17223000
H        1.37213000      -2.72368000      -2.33925000      -0.15576000       0.58224000       0.08059000
22
Lattice="100.0 0.0 0.0 0.0 100.0 0.0 0.0 0.0 100.0" Properties=species:S:1:pos:R:3:forces:R:3 config_type=vacuum energy=-11581.17237259 pbc="T T T"
C        0.12977000       1.99169000       1.84767000      -0.49662000       1.64920000       1.23649000
C       -0.18636000       0.72480000       2.60027000       1.49678000      -0.44773000      -0.87987000
C        0.92734000      -0.04526000       2.47321000      -0.56838000      -0.97938000       1.26100000
H       -1.13225000       0.46945000       3.05633000       0.15494000       0.03542000      -0.04125000
C        1.97595000       0.66222000       1.77395000       1.05348000      -0.50149000       0.42768000
H        1.15177000      -1.02984000       2.93331000      -0.60060000       0.69974000      -0.43282000
C        1.57071000       1.87400000       1.45137000      -0.79559000       0.92085000      -1.16401000
H        2.98498000       0.29059000       1.67208000      -0.01371000      -0.15250000      -0.11386000
H        2.14273000       2.67147000       0.96986000      -0.31308000      -0.39693000       0.19430000
H        0.07150000       2.91620000       2.50012000      -0.31392000      -0.93274000      -0.40280000
H       -0.60186000       2.16600000       1.05348000       0.27752000       0.05084000      -0.18627000
C       -1.49598000      -0.68416000      -2.27551000       1.69705000       0.50562000       0.63608000
C       -2.64965000      -1.25127000      -2.49713000       1.10965000      -1.77452000       0.56549000
H       -3.46986000      -0.85408000      -2.94860000      -1.96012000       1.33932000      -1.32287000
H       -2.70085000      -2.29415000      -2.20588000      -0.32000000       0.05762000       0.21429000
C       -0.48100000      -1.46020000      -1.49457000       0.20359000      -0.73170000       0.06823000
H       -1.14532000       0.30030000      -2.53510000      -0.48545000       0.35963000      -0.33376000
O       -0.83241000      -2.38923000      -0.80594000      -0.09957000      -0.26856000       0.15322000
C        1.00059000      -1.13400000      -1.56787000      -1.08280000      -0.73380000      -0.59771000
H        1.11978000      -0.21792000      -2.11468000       0.60867000       0.38904000      -0.10233000
H        1.48233000      -1.99014000      -2.08185000      -0.17405000       0.63793000       0.25181000
H        1.33779000      -1.10145000      -0.55000000       0.43756000       0.28695000       0.32896000
22
Lattice="100.0 0.0 0.0 0.0 100.0 0.0 0.0 0.0 100.0" Properties=species:S:1:pos:R:3:forces:R:3 config_type=vacuum energy=-11580.99617362 pbc="T T T"
C       -0.55624000       2.28077000       0.89474000      -1.85742000       0.27917000      -1.86605000
C       -1.29960000       1.02726000       1.24542000      -0.95791000       0.71044000      -0.06246000
C       -0.43040000       0.09900000       1.54288000       1.44754000      -0.42225000       0.52145000
H       -2.35890000       0.84908000       1.15142000      -0.12700000       0.33902000       0.17255000
C        0.91555000       0.63636000       1.35505000       0.77427000      -1.24573000       1.26438000
H       -0.61612000      -0.86365000       1.92447000      -0.33265000      -1.09448000       0.01063000
C        0.85524000       1.89031000       0.94584000       0.30449000       0.17215000       0.52990000
H        1.82195000       0.09241000       1.64503000      -0.42884000       0.27004000      -0.35200000
H        1.71502000       2.49544000       0.80802000       0.33476000       0.66366000      -0.22348000
H       -0.87508000       3.10739000       1.52707000       0.23718000       0.18879000      -0.05889000
H       -0.90341000       2.49036000      -0.15149000       0.42132000       0.43462000       0.60810000
C       -0.86038000      -1.17563000      -1.34671000      -0.24130000       1.93818000      -1.58349000
C       -1.93483000      -1.70774000      -0.79472000       0.10116000       0.31959000      -0.13515000
H       -2.93697000      -1.35657000      -1.06968000       0.47182000      -0.32049000       0.31104000
H       -1.72130000      -2.38996000       0.00513000      -0.55387000      -0.62349000       0.12023000
C        0.52363000      -1.56613000      -0.96485000      -0.83970000       1.05656000       0.21104000
H       -1.00391000      -0.27696000      -2.00894000       0.41774000      -1.18373000       0.42082000
O        0.69617000      -2.56463000      -0.33214000       0.21660000      -1.57052000       0.69097000
C        1.69406000      -0.67713000      -1.20237000       1.70297000       0.13961000      -0.67330000
H        1.53996000       0.33548000      -1.59965000      -0.39599000      -0.21143000       0.67398000
H        2.28811000      -1.13807000      -2.02719000      -0.16163000      -0.07305000       0.74518000
H        2.29044000      -0.70290000      -0.24164000      -0.53787000       0.24256000      -1.55594000
22
Lattice="100.0 0.0 0.0 0.0 100.0 0.0 0.0 0.0 100.0" Properties=species:S:1:pos:R:3:forces:R:3 config_type=vacuum energy=-11581.22517081 pbc="T T T"
C        0.34671000       2.16818000       1.58192000      -0.39394000      -0.80570000      -1.19391000
C       -0.77991000       1.21949000       2.04681000       2.54574000      -1.21594000       0.03534000
C       -0.25653000      -0.04826000       2.08282000       0.37905000       1.97794000      -1.51458000
H       -1.78612000       1.53516000       2.23456000      -0.17173000       0.08944000       0.32945000
C        1.12795000      -0.03304000       1.44920000      -1.60963000       0.05216000       0.81306000
H       -0.78842000      -0.96477000       2.24154000      -0.14222000      -0.18953000       0.35697000
C        1.45150000       1.21102000       1.06956000      -1.48307000       0.05283000       1.31604000
H        1.65022000      -0.96837000       1.35017000       0.36628000       0.06641000      -0.18526000
H        2.34222000       1.55595000       0.60321000       0.53504000       0.13970000      -0.24338000
H        0.77739000       2.79127000       2.38002000      -0.31113000      -0.04844000      -0.18113000
H       -0.03524000       2.81200000       0.76311000       0.26950000      -0.09271000       0.49688000
C       -0.91278000      -0.34315000      -1.57115000      -0.92583000      -0.66951000       0.93080000
C       -2.16913000      -0.34099000      -1.11679000       1.46562000       1.38078000      -1.36794000
H       -2.83462000       0.47099000      -1.35442000      -0.11047000       0.15030000       0.25364000
H       -2.49434000      -1.14680000      -0.56253000      -0.90784000      -1.63967000       0.99137000
C       -0.04474000      -1.54213000      -1.35940000       1.40631000       0.32946000      -1.25768000
H       -0.51406000       0.52273000      -2.03723000       0.43895000       0.40266000      -0.60730000
O       -0.37053000      -2.54036000      -0.78412000      -0.89834000      -0.52677000       0.69739000
C        1.38190000      -1.47116000      -1.90392000       0.64969000       1.20955000       1.62310000
H        1.85287000      -0.71998000      -1.20235000      -0.21840000      -0.56920000      -0.81816000
H        1.56007000      -1.11756000      -2.91141000      -0.39731000       0.32102000      -0.20287000
H        1.93151000      -2.39744000      -1.75816000      -0.34451000      -0.13390000       0.16138000
118
Lattice="100.0 0.0 0.0 0.0 100.0 0.0 0.0 0.0 100.0" Properties=species:S:1:pos:R:3:forces:R:3 config_type=reactants_in_water energy=-78177.67507138 pbc="T T T"
C        4.85750000       6.14572000       6.30484000       1.22024000       0.17032000       0.79918000
C        3.75926000       6.37838000       7.28243000      -0.62967000      -0.46904000      -1.41432000
C        4.21151000       6.25025000       8.53125000      -1.61647000       0.20218000       0.14713000
H        2.75430000       6.64615000       6.94543000       0.42440000      -0.38180000       0.13523000
C        5.61203000       6.16263000       8.56464000       1.77850000      -0.82456000      -4.51189000
H        3.52797000       6.10312000       9.32445000      -0.22549000       0.54811000       1.07322000
C        6.07352000       6.08309000       7.24779000      -1.66650000       0.29504000       1.42016000
H        6.25681000       6.00305000       9.34561000       1.03640000      -0.22995000       2.03104000
H        7.05065000       5.79227000       6.90654000       0.25734000       0.24406000       0.12189000
H        4.87906000       6.96018000       5.57118000       0.24370000      -0.50809000       0.01806000
H        4.88298000       5.12058000       5.84625000      -0.66803000       0.91670000       0.09174000
C        6.72288000       6.44723000       2.23500000       0.68171000      -1.01228000      -0.34970000
C        6.16756000       6.88574000       3.35026000       0.58211000       0.18698000      -0.63509000
H        5.28537000       7.46957000       3.22154000      -0.64129000       0.27685000       0.61428000
H        6.70775000       6.75673000       4.27774000      -0.35980000      -0.03392000       0.19084000
C        8.02108000       5.69830000       2.24387000       0.45532000       0.35241000      -0.76315000
H        6.28803000       6.54867000       1.24753000      -0.24920000       0.20835000       0.17346000
O        8.75010000       5.66982000       3.22252000      -0.62928000      -0.08113000      -0.20843000
C        8.48731000       5.16775000       0.88070000       0.25887000      -0.70223000       1.25020000
H        9.15181000       4.30803000       1.03709000       0.09421000       0.50842000      -0.07928000
H        9.03063000       5.98062000       0.41526000       0.25855000       0.10069000      -0.11419000
H        7.70451000       4.83701000       0.22840000      -0.69131000       0.05023000      -0.21811000
O       13.68561000       6.67377000       2.49137000      -0.75096000       0.78809000      -1.08999000