124
Lattice="100.0 0.0 0.0 0.0 100.0 0.0 0.0 0.0 100.0" Properties=species:S:1:pos:R:3:forces:R:3 config_type=reactants_in_water energy=-82337.12237592 pbc="T T T"
C        5.64629000       7.23775000       6.65136000       0.74193000       0.20319000       0.08621000
C        4.80922000       6.24456000       7.39897000      -0.90046000       0.75220000       0.47963000
C        5.63443000       5.21005000       7.80900000       0.37985000       0.67649000      -0.42233000
H        3.86224000       6.59050000       7.87352000       1.12516000      -0.95359000      -0.64649000
C        6.86762000       5.33025000       7.11069000       0.15022000       0.27894000       0.06765000
H        5.32288000       4.36785000       8.38780000       0.08836000      -0.39766000       0.26802000
C        6.84641000       6.43204000       6.26198000      -1.05029000      -1.04314000       0.83600000
H        7.67542000       4.62202000       7.24232000      -0.09045000      -0.10341000      -0.25362000
H        7.59321000       6.75358000       5.55421000      -0.05881000       0.02179000       0.26027000
H        5.97656000       7.99856000       7.36942000      -0.05048000       0.01423000      -0.18487000
H        5.17854000       7.71341000       5.80956000      -0.11895000       0.43285000       0.06665000
C        4.97258000       5.38400000       4.87023000       0.52358000      -0.44822000      -0.99755000
C        3.90254000       5.51048000       5.73024000      -0.30596000      -0.64586000      -0.48751000
H        3.16255000       6.33006000       5.53328000       0.84430000      -0.89733000       0.54477000
H        3.52417000       4.57871000       6.18642000       0.01333000       0.81088000      -0.21823000
C        5.76162000       4.12742000       4.71137000       0.09714000       1.49010000      -0.04383000
H        5.16864000       6.14115000       4.07789000      -0.22581000      -0.72347000       0.85953000
O        5.77449000       3.16558000       5.46964000      -0.10157000       0.56489000      -0.41630000
C        6.62846000       4.17763000       3.45301000       0.15995000      -0.24541000       0.13138000
H        7.51224000       4.83743000       3.47850000      -0.42714000      -0.23714000       0.60198000
H        6.03763000       4.53911000       2.61016000      -0.22524000      -0.19585000       0.16033000
H        7.00237000       3.17419000       3.24916000      -0.11395000       0.05942000      -0.13493000
O        3.17887000       5.39372000       2.72048000       0.16030000       0.93763000      -0.94287000
H        2.65727000       5.88511000       3.32977000      -0.54449000       0.70708000       0.53200000
H        3.49661000       4.66417000       3.22867000       0.03417000      -0.85836000       0.10036000
O        1.22004000       7.97123000       7.20626000       0.04372000       0.13715000       0.39603000
H        1.64663000       8.15338000       6.37919000       0.47493000       0.12626000      -0.61101000
H        0.31893000       7.78699000       6.94619000      -0.37994000      -0.17023000       0.14996000
O        7.85688000       4.07097000       0.90706000      -0.13205000      -0.50341000      -1.59698000
H        8.41741000       3.50431000       1.42136000       0.57804000      -0.59310000       0.62695000
H        7.62733000       4.76323000       1.49791000      -0.36303000       0.86391000       0.84093000
O        6.78301000       1.33466000       7.83954000       1.55796000       0.42099000      -0.34921000
H        6.68787000       1.47554000       6.87959000       0.12339000       0.01330000       0.56318000
H        7.70959000       1.61686000       8.07311000      -1.40633000      -0.69600000      -0.24316000
O        2.68121000       8.27972000       2.18564000      -0.16023000      -0.88075000       0.56243000
H        3.17011000       8.89553000       1.68054000       1.20777000       0.68267000      -1.06052000
H        1.97779000       8.83600000       2.46833000      -1.16790000       0.56998000       0.67494000
O        6.34844000       5.54488000      11.03670000       1.09651000      -0.38750000       1.28023000
H        6.32028000       6.48735000      11.10693000       0.13286000       0.87427000       0.06965000
H        5.71042000       5.33055000      10.39878000      -1.28895000      -0.53562000      -1.43630000
O        3.27786000       3.23482000       1.62835000       0.43846000      -1.80536000       1.74105000
H        3.53673000       3.44570000       0.75857000       0.31722000       0.32940000      -1.57537000
H        3.35808000       2.26267000       1.70267000      -0.67947000       0.85723000      -0.50888000
O        4.57987000       0.99777000       4.26338000       2.51258000      -0.18119000      -0.95095000
H        5.48687000       1.02846000       3.81433000      -1.72364000       0.39037000       0.73967000
H        4.68633000       0.17157000       4.71834000      -0.26221000      -0.76243000       0.68748000
O        9.78197000       3.12329000       3.42519000      -1.77697000      -0.72076000      -0.16803000
H        9.70333000       3.69095000       4.17481000      -0.02609000       0.86134000       0.61476000
H       10.67152000       3.15124000       3.15286000       1.59601000       0.18748000      -0.76198000
O        1.81307000       4.22248000       8.41624000      -0.65190000      -0.74215000      -0.04204000
H        1.35488000       3.40332000       8.72115000       0.45047000       0.97750000      -0.15035000
H        2.70450000       4.09687000       8.74856000       0.23184000      -0.14178000      -0.03002000
O        2.21545000       1.43532000       5.15917000      -0.39940000      -0.06272000       0.27791000
H        2.54792000       2.06473000       5.80938000       0.21458000      -0.20051000      -0.14349000
H        2.97980000       1.11683000       4.64868000      -0.27034000       0.62693000       0.34753000
O       10.60841000       4.04309000       0.56519000       0.44808000      -1.03065000       0.28047000
H        9.74032000       4.31244000       0.30885000      -1.04950000       0.23174000      -0.27779000
H       11.12633000       4.82549000       0.51656000       0.76964000       0.90922000      -0.01763000
O        0.74352000       2.21736000       3.02759000       0.04069000       0.07969000       0.69795000
H        1.23875000       2.20748000       3.88723000      -0.60947000      -0.20588000      -0.84385000
H        1.07825000       1.43974000       2.58179000       0.16355000      -0.04129000       0.04732000
O        9.39968000       8.77824000       5.98234000      -0.43649000       0.87532000       0.71253000
H        9.16919000       7.86310000       5.92599000       0.02216000      -0.85491000      -0.04779000
H        9.99959000       8.89842000       5.26504000       0.67369000       0.08312000      -0.71276000
O       -0.03784000       6.67436000       1.18810000       0.35199000       0.57891000       1.37900000
H        0.54795000       7.16074000       1.81680000      -0.58075000      -0.89426000      -0.85549000
H        0.25124000       6.98513000       0.33925000       0.25280000       0.13770000      -0.62400000
O        5.61078000       0.85705000       1.89305000      -0.33941000       0.28420000       0.05910000
H        5.87148000       1.61644000       1.38232000       0.70626000       0.37892000      -0.64095000
H        4.80437000       1.22109000       2.28967000       0.00891000      -0.62697000      -0.12125000
O        9.58989000       7.49754000      10.13948000       0.47180000       1.34118000      -0.27590000
H       10.07521000       8.17086000      10.66475000      -0.45060000      -0.82823000      -0.32857000
H        9.41521000       7.98971000       9.31041000       0.03785000      -0.49179000       0.53257000
O        4.58446000       2.11182000       8.93628000      -0.05306000       0.88366000       0.54646000
H        5.50146000       1.82845000       8.74388000       0.11147000       0.14980000      -0.30053000
H        4.10173000       1.30255000       8.91779000      -0.66117000      -0.77597000      -0.01078000
O        3.50709000       8.37250000       9.37395000       0.21184000       0.91993000      -1.89358000
H        3.53789000       8.88276000       8.50720000      -0.05800000      -0.70010000       1.73456000
H        3.25249000       7.51275000       9.01775000      -0.34470000       0.11058000       0.66461000
O        7.41093000       6.84329000       1.07769000       0.91625000      -1.00867000      -1.20102000
H        6.64482000       7.30763000       0.77222000      -0.70698000       0.32966000      -0.30228000
H        7.73058000       6.29515000       0.31325000      -0.48823000       0.79372000       0.94325000
O        9.01845000       1.18950000       9.82094000       1.03405000       1.42232000      -1.33365000
H        9.03571000       1.94141000      10.44089000      -0.17164000      -0.18846000      -0.13196000
H        9.49883000       1.60214000       9.04429000      -0.63147000      -0.77922000       1.15561000
O        8.80131000       4.09027000      10.81178000      -0.14487000      -1.26294000       0.33048000
H        9.09960000       4.83348000      10.32132000       0.65587000       1.02986000      -0.61668000
H        7.90516000       4.34745000      11.02950000      -0.49181000       0.14642000       0.21202000
O        8.34530000       1.28843000       5.28901000      -0.58667000       1.02559000       0.02633000
H        8.34451000       0.64142000       4.58917000       0.17517000      -0.24249000      -0.37124000
H        7.89601000       2.06717000       4.90237000       0.08880000      -0.63990000       0.18905000
O        1.55477000       2.76011000      10.73126000       1.83665000      -0.02740000       0.23544000
H        2.53172000       2.80452000      10.90918000      -1.20434000      -0.00653000      -0.55686000
H        1.26253000       2.23162000      11.46513000      -0.54604000      -0.38202000       0.38364000
O        0.80199000       6.69655000      10.32335000      -0.27498000       1.18201000       0.43451000
H        0.85376000       6.00744000       9.68256000       0.22805000      -1.00356000      -0.87315000
H        1.34180000       6.42107000      11.05597000       0.24768000      -0.27143000       0.33805000
O        9.12247000       6.80635000       3.07813000       3.24972000       0.00485000      -0.22807000
H        8.40044000       6.75510000       3.62903000      -2.33826000      -0.28806000       2.17766000
H        8.73412000       7.01656000       2.25819000      -0.60680000       0.42967000      -1.69388000
O        6.71511000       9.62342000       4.47016000       1.75232000      -0.70544000      -0.40668000
H        5.92007000       9.96256000       4.07419000      -0.15416000       0.15252000      -0.53870000
H        7.42408000       9.42208000       3.80219000      -1.49725000       0.52586000       0.86894000
O        2.01195000       0.97003000       0.46144000      -1.29322000      -0.52288000      -0.32011000
H        2.04545000       0.69355000      -0.46748000       0.21563000       0.06750000       0.37286000
H        1.05206000       0.88151000       0.66630000       1.03005000       0.34084000      -0.14370000
O        5.01843000      10.11078000       6.67917000      -0.91286000      -0.37799000      -0.39440000
H        4.10175000      10.33827000       6.84012000      -0.28115000       0.22183000      -0.03670000
H        5.47294000      10.59476000       7.34930000       0.74517000       0.62462000       0.62767000
O        4.26995000      11.09712000      10.13464000      -1.57621000       1.08840000       0.22472000
H        3.33787000      10.80025000      10.25537000       0.69794000       0.47161000      -0.09502000
H        4.68504000      10.31690000       9.83766000       0.86500000      -1.47734000      -0.23616000
O       10.03527000       9.58584000       1.00084000       0.65413000      -0.01619000       0.79905000
H        9.09194000       9.57351000       0.90754000      -0.72877000      -0.01943000      -0.17444000
H       10.16727000       9.58370000       1.96575000       0.03902000      -0.06876000      -0.59804000
O        9.96243000       5.95197000       5.75941000       0.72757000      -0.40867000      -0.55713000
H       10.89107000       5.66113000       5.71876000      -0.54644000       0.35006000      -0.14920000
H        9.72209000       5.79221000       6.66349000      -0.30997000      -0.27334000       0.82035000
O        9.98430000       2.76266000       7.06803000      -2.26969000       0.43679000      -0.57043000
H        9.57805000       2.70838000       6.16851000       0.62777000      -0.48897000       1.14721000
H       10.90799000       2.77917000       6.95908000       1.70584000      -0.10037000      -0.28792000
O        1.06166000      10.18904000      10.23854000      -0.34918000      -0.55683000      -0.47824000
H        0.24260000      10.18940000       9.71334000       0.51752000       0.18462000       0.28978000
H        1.28240000       9.24052000      10.26353000       0.08881000       0.26538000      -0.03611000
22
Lattice="100.0 0.0 0.0 0.0 100.0 0.0 0.0 0.0 100.0" Properties=species:S:1:pos:R:3:forces:R:3 config_type=vacuum energy=-11581.62842744 pbc="T T T"
C       -0.04630000       1.82864000       0.88823000      -0.40108000       0.32644000      -0.30948000
C       -0.97076000       0.84366000       1.65934000      -0.38026000      -0.86260000      -3.00803000
C       -0.02043000      -0.18319000       2.11350000       1.24001000       0.38074000       0.88302000
H       -1.74420000       1.18100000       2.35029000       0.17581000       0.07722000      -0.39190000
C        1.04590000      -0.18553000       1.30420000       1.03366000      -0.36209000       1.26980000
H       -0.07581000      -0.75394000       3.02473000      -0.39152000      -0.27892000      -0.09736000
C        0.86771000       0.78867000       0.25271000      -2.49978000      -0.68116000      -1.11539000
H        1.95486000      -0.76246000       1.42503000      -0.34435000      -0.28661000      -0.04222000
H        1.67564000       1.08810000      -0.37082000       0.54730000       0.26619000      -0.30837000
H        0.51824000       2.50826000       1.52901000      -0.04017000      -0.08918000       0.12496000
H       -0.57528000       2.40104000       0.10225000       0.14002000      -0.08712000       0.61620000
C       -0.43504000      -0.02554000      -0.73537000       2.44727000       1.88663000       1.09431000
C       -1.54808000       0.04672000       0.23008000      -1.59873000       2.30752000       0.22273000
H       -2.39218000       0.60254000      -0.27395000       0.82429000      -0.14315000       0.86684000
H       -1.96292000      -0.88397000       0.46980000      -0.24323000      -1.42579000       0.54464000
C        0.14167000      -1.29351000      -1.15977000      -1.85143000      -2.56871000       1.52421000
H       -0.46828000       0.60971000      -1.60558000      -0.39099000       0.45955000      -0.09232000
O       -0.17314000      -2.35145000      -0.59579000       0.98822000       1.34375000      -0.85894000
C        0.93947000      -1.25179000      -2.38730000       2.23923000      -0.12218000      -0.98592000
H        1.61637000      -0.38622000      -2.45097000      -0.62379000       0.17223000       0.06215000
H        0.27378000      -1.23988000      -3.24278000      -0.17690000       0.05737000      -0.15874000
H        1.65383000      -2.07798000      -2.50867000      -0.66467000      -0.18389000       0.23349000
22
Lattice="100.0 0.0 0.0 0.0 100.0 0.0 0.0 0.0 100.0" Properties=species:S:1:pos:R:3:forces:R:3 config_type=vacuum energy=-11581.1144386 pbc="T T T"
C        1.56588000       1.26148000       1.31424000       0.88682000      -0.50032000       2.20872000
C        0.60624000       0.64832000       2.34074000       1.38764000      -0.88852000      -1.15247000
C        0.48321000      -0.66184000       2.04539000      -0.60723000      -0.28817000      -1.26767000
H        0.23898000       1.21543000       3.15923000      -0.72538000       0.19760000       0.32385000
C        1.35252000      -1.02433000       0.85439000       0.00336000       1.86221000       1.82555000
H       -0.29354000      -1.35269000       2.37705000       0.50481000       0.21957000       0.48208000
C        2.05606000       0.10105000       0.56175000      -1.80220000      -2.00676000      -0.43881000
H        1.44009000      -2.00866000       0.41673000       0.11609000       0.09300000       0.11030000
H        2.80102000       0.08561000      -0.16812000       1.05246000       0.47220000      -1.10467000
H        2.45509000       1.74040000       1.76672000      -0.61669000       0.28521000       0.02246000
H        0.98710000       1.97177000       0.76252000      -0.06568000       0.57242000      -0.70890000
C       -0.99623000       0.51800000      -0.86072000       1.29279000       0.55326000      -0.72195000
C       -1.75300000       0.89789000       0.13221000      -1.55528000      -1.44778000       0.22900000
H       -1.75117000       1.82007000       0.63922000       0.11916000       0.90876000       0.36466000
H       -2.49582000       0.12242000       0.39921000       0.35745000       0.74267000       0.29776000
C       -1.10693000      -0.84381000      -1.39275000      -1.56337000      -0.92811000       0.60412000
H       -0.17862000       1.07857000      -1.30277000      -0.14919000       0.35564000       0.25982000
O       -2.06112000      -1.55679000      -1.11129000       0.94249000       0.18553000      -0.37638000
C        0.00098000      -1.22807000      -2.29591000      -0.45394000       0.43627000      -0.49208000
H       -0.19462000      -0.63294000      -3.18988000       0.59890000       0.46883000      -0.00288000
H       -0.09273000      -2.21900000      -2.66142000       0.08693000      -1.13393000       0.12609000
H        0.93725000      -1.00153000      -1.79286000       0.13061000       0.01977000      -0.46075000
22
Lattice="100.0 0.0 0.0 0.0 100.0 0.0 0.0 0.0 100.0" Properties=species:S:1:pos:R:3:forces:R:3 config_type=vacuum energy=-11581.00843442 pbc="T T T"
C        0.54383000       2.24656000       1.38304000      -0.23990000       1.00986000      -1.15907000
C       -0.28357000       1.26096000       2.09235000       0.47991000      -0.83418000       1.39514000
C        0.35476000       0.08475000       2.03190000       0.49702000       0.87440000      -2.00514000
H       -1.14693000       1.47557000       2.71090000       0.16384000       0.17314000      -0.14055000
C        1.46140000       0.17703000       1.00796000      -0.94992000      -1.27538000       2.43872000
H        0.09659000      -0.82567000       2.45870000      -0.62536000      -1.35467000       0.84725000
C        1.49834000       1.42066000       0.57966000       1.75032000       0.76499000      -0.99097000
H        2.16026000      -0.64642000       0.93415000      -0.06697000       0.16118000      -0.74347000
H        2.29123000       1.74907000      -0.11844000      -0.77732000       0.32154000       0.55937000
H        1.14669000       2.83637000       2.08983000      -0.18645000      -0.02417000      -0.06122000
H       -0.04888000       2.94249000       0.80325000      -0.05569000       0.34062000      -0.22816000
C       -1.29766000      -0.54277000      -1.40536000      -1.40960000      -0.14578000       1.64936000
C       -2.44840000      -0.59147000      -0.70803000       1.26121000       1.14002000      -1.36427000
H       -3.19779000       0.13809000      -0.87972000      -0.50566000       0.77602000       0.07307000
H       -2.62029000      -1.27202000       0.06976000      -0.21931000      -1.35748000       0.48587000
C       -0.36688000      -1.66237000      -1.20077000       1.53931000       0.68961000      -1.16142000
H       -0.98330000       0.35817000      -1.90382000      -0.15933000      -0.20316000      -0.70844000
O       -0.58285000      -2.55338000      -0.43446000      -0.24819000      -0.91700000       0.70998000
C        0.94433000      -1.57453000      -1.99116000       1.35997000       0.92347000       2.02141000
H        1.28168000      -0.49959000      -1.94207000      -0.38919000      -0.96031000      -0.30211000
H        0.91766000      -1.89515000      -3.01780000      -0.22107000      -0.25491000      -0.30140000
H        1.73146000      -2.12760000      -1.40265000      -0.90342000       0.24885000      -0.85785000
118
Lattice="100.0 0.0 0.0 0.0 100.0 0.0 0.0 0.0 100.0" Properties=species:S:1:pos:R:3:forces:R:3 config_type=reactants_in_water energy=-78174.43049093 pbc="T T T"
C        6.07449000       7.04678000       6.78975000      -0.72075000       0.95188000       0.03669000
C        5.35361000       5.98752000       7.59795000       1.56423000       1.36456000      -0.37381000
C        6.22573000       4.97425000       7.74526000      -1.05320000       0.37970000       0.90870000
H        4.41802000       6.25413000       8.03468000      -0.62516000      -0.62905000       0.08408000
C        7.54949000       5.33788000       7.21122000      -1.78328000      -0.78683000      -1.28876000
H        5.90136000       4.01173000       8.11009000       0.37798000       0.01230000       0.43397000
C        7.34842000       6.38264000       6.40373000       0.64942000       0.97386000       0.11157000
H        8.32824000       4.63319000       7.25253000       0.93590000      -0.24035000      -0.20468000
H        7.98703000       6.75917000       5.62082000       0.27557000       0.14542000       0.37277000
H        6.32043000       7.99195000       7.34184000      -0.18070000      -0.84906000       0.05236000
H        5.43931000       7.47361000       6.00336000       0.19733000      -0.28543000      -0.09140000
C        4.48776000       5.33122000       4.36020000      -1.45192000      -0.42763000       0.46370000
C        3.24127000       5.02105000       4.74660000       0.44741000       1.60865000      -0.76420000
H        2.71864000       5.77903000       5.31413000      -0.39710000      -0.21525000       0.05811000
H        2.69502000       4.20233000       4.30187000       0.27078000      -0.28798000       0.63314000
C        5.24368000       4.24176000       3.76562000       1.47001000       0.11965000      -0.70365000
H        4.90866000       6.31925000       4.51412000       0.26375000      -0.53857000       0.22633000
O        4.74868000       3.15460000       3.52921000      -0.29783000      -0.49551000      -0.09184000
C        6.69732000       4.52687000       3.48910000      -0.67008000       0.23508000       0.15456000
H        7.20389000       4.67222000       4.43264000       0.15523000      -0.08643000       0.34683000
H        6.74245000       5.49525000       3.00587000       0.12538000       0.12260000      -0.39665000
H        7.17042000       3.75674000       2.90637000       0.09687000      -0.22337000      -0.18481000
O        0.71602000       4.86980000       2.86779000       0.38594000      -1.97404000      -0.95158000
H        0.49612000       5.63908000       3.32186000      -0.48563000       2.16843000       0.91312000
H        0.79605000       5.07245000       1.92570000       0.08385000      -0.03069000       0.16603000
O        0.93111000       5.94648000       7.38097000      -0.31928000       2.07340000       0.84184000
H        0.13676000       6.34127000       7.01678000      -0.09390000       0.31928000      -0.04239000
H        0.90516000       5.10156000       7.00267000       0.30286000      -2.43418000      -0.98255000
O        0.69702000       3.32592000       5.37909000      -1.39364000       1.52855000      -0.99062000
H        0.40964000       3.52021000       4.44378000       0.71303000      -0.27433000       1.18671000
H        1.21563000       2.54795000       5.29965000       0.65080000      -1.15785000      -0.02350000
O        8.14533000       2.91322000       8.42194000      -1.06990000      -0.77490000      -0.55906000
H        7.23345000       2.73459000       8.70242000       0.02617000      -0.21785000      -1.05342000
H        8.51269000       2.98919000       9.26604000       1.72235000       0.32204000       1.91038000
O        6.16272000       1.21681000       7.63518000      -0.71669000       0.16424000       0.46094000
H        6.19566000       0.60951000       8.36977000      -0.21295000      -0.42347000       0.43312000
H        6.81837000       0.86145000       7.05701000       0.71047000      -0.12294000      -0.83959000
O        2.73797000       0.32629000       4.87561000      -1.37233000       1.18838000      -0.62333000
H        3.00039000       1.21402000       4.60782000      -0.20456000       0.21727000      -0.14555000
H        3.57316000      -0.01694000       5.08999000       1.74162000      -1.19181000       0.57783000
O        6.83496000      10.85221000       7.07819000       0.15344000      -1.49366000      -0.53775000
H        6.84297000      11.76308000       7.26778000       0.20979000       1.68436000       0.37514000
H        5.95146000      10.55555000       7.28451000      -0.06924000      -0.26266000       0.35714000
O        6.07479000       0.76429000       2.89891000      -1.28867000       2.02196000      -0.53553000
H        5.67761000       1.69887000       3.04320000       0.91791000      -1.76047000       0.24258000
H        5.72475000       0.61291000       2.00220000       0.36289000      -0.33263000       0.41978000
O        2.23144000       9.49926000       1.59402000      -1.08986000       0.25007000       0.92212000
H        2.07644000      10.04782000       2.38564000      -0.03809000      -0.37692000      -0.48121000
H        3.15219000       9.60503000       1.41407000       0.89402000       0.05097000      -0.62833000
O        6.46698000       9.43292000       4.03078000       0.00914000      -3.22048000      -0.88134000
H        7.12181000       8.77891000       4.37405000       0.28398000       1.26866000       0.73305000
H        6.07295000       8.67280000       3.50948000      -0.31525000       1.68940000      -0.01629000
O        3.07283000       9.74714000      11.71011000      -0.42818000       0.76598000       1.20025000
H        2.71957000       9.08357000      12.30353000       0.02147000      -0.15338000      -0.04592000
H        3.30708000       9.31000000      10.91527000       0.35399000      -0.81871000      -1.07863000
O        9.25893000       8.06556000       4.36947000       0.53582000       0.58817000       0.31020000
H        9.22780000       9.04416000       4.18097000       0.77903000      -1.66305000       1.02946000
H        9.91796000       7.82384000       5.09582000      -1.12623000       1.17405000      -1.08223000
O        9.47418000       6.85666000       9.81158000       1.02246000       0.98159000      -0.35948000
H        8.70845000       7.14526000       9.32231000      -0.56486000       0.03000000      -0.17558000
H        9.25077000       6.04169000      10.21952000      -0.45459000      -1.02886000       0.43932000
O        6.64826000       8.94501000       9.92384000       0.47133000      -2.41055000      -0.52439000
H        7.45361000       9.21738000       9.48398000       0.12376000       0.56846000       0.03158000
H        6.19100000       9.68676000      10.23000000      -0.83052000       1.83037000       0.42343000
O        4.12831000       9.83072000       7.70291000       1.56574000      -0.29412000       0.79136000
H        4.20312000      10.31523000       6.89851000      -0.66842000       0.43657000      -1.06307000
H        3.22702000       9.71343000       7.92793000      -1.27967000       0.05619000      -0.06543000
O        8.94419000       9.15813000       1.61690000       0.96317000      -1.17045000      -2.21157000
H        9.15563000       8.23172000       1.80304000       0.05395000       0.01476000      -0.22019000
H        8.57088000       9.44715000       2.40271000      -1.28912000       1.05700000       2.15789000
O       10.65260000       7.79746000       6.99183000       0.74228000       0.77124000       0.03674000
H       10.30716000       7.09975000       7.54001000      -0.23756000      -0.39101000       0.45723000
H       11.27606000       8.28832000       7.56197000      -0.63022000      -0.37561000      -0.47512000
O        6.29594000      -1.98624000      10.04737000      -0.14622000       1.08693000       0.77732000
H        6.56964000      -2.88838000      10.12653000       0.21119000      -0.85958000      -0.14349000
H        6.38783000      -1.64314000      10.95471000      -0.12884000      -0.11198000      -0.61401000
O        4.99061000      10.28444000       0.78414000      -0.53690000      -1.35413000       0.83849000
H        4.71048000      10.54003000       1.66883000       0.50343000       0.03075000       0.14233000
H        5.22368000      11.09321000       0.37712000       0.38780000       1.25531000      -0.83393000
O       -1.76418000       6.48273000       9.43388000      -0.30029000      -2.48638000      -0.95327000
H       -1.07672000       5.99636000       8.93864000      -0.45438000       0.23552000       0.45364000
H       -1.39135000       7.31340000       9.57694000       0.93541000       2.14603000       0.46184000
O       10.03955000       2.58831000       0.65501000      -0.35104000       0.82356000       0.71179000
H        9.62489000       2.70147000      -0.19082000      -0.45919000       0.16478000      -0.51760000
H       10.69902000       1.93434000       0.51904000       0.85559000      -0.89214000      -0.11527000
O       10.04892000      12.05156000       8.63741000       0.07146000      -0.17486000       0.08387000
H       10.50418000      11.55348000       9.32319000      -0.16270000      -0.31240000      -0.02386000
H       10.13810000      12.95517000       8.92816000       0.00608000       0.47567000       0.03283000