22
Lattice="100.0 0.0 0.0 0.0 100.0 0.0 0.0 0.0 100.0" Properties=species:S:1:pos:R:3:forces:R:3 config_type=vacuum energy=-11580.65292032 pbc="T T T"
C       -0.12122000       1.80949000       0.92667000      -0.77842000      -0.05935000       0.20285000
C       -0.90615000       0.73556000       1.72702000       1.16711000       0.43448000       0.29947000
C        0.02709000      -0.25343000       2.06569000       0.41484000       0.66362000      -0.38462000
H       -1.72308000       0.99826000       2.38981000      -0.10405000      -0.03756000      -0.30956000
C        1.15098000      -0.08146000       1.23455000       0.34591000      -0.08460000       0.41085000
H       -0.07981000      -1.05681000       2.78651000      -0.16898000       0.18595000      -0.21472000
C        0.97886000       0.98390000       0.37161000       0.03378000      -1.12604000       0.49751000
H        2.03038000      -0.70490000       1.22403000      -0.16394000      -0.31117000      -0.07892000
H        1.69857000       1.15966000      -0.40486000       0.04196000       0.75828000      -0.02716000
H        0.27467000       2.54692000       1.64171000       0.00265000      -0.19828000      -0.12303000
H       -0.72601000       2.32082000       0.18231000       0.09101000       0.17170000       0.13051000
C       -0.65436000      -0.05227000      -0.90724000      -0.47800000       0.24352000      -1.18267000
C       -1.73692000      -0.02608000      -0.06845000      -0.29087000       0.07156000       1.43423000
H       -2.36913000       0.86120000      -0.02624000      -0.19289000      -0.63797000      -0.48710000
H       -2.06668000      -0.92489000       0.46425000       0.00555000       0.39638000      -0.62079000
C        0.06286000      -1.27032000      -1.15483000       0.37072000      -3.07543000       0.34759000
H       -0.61539000       0.63774000      -1.72737000       0.25646000       0.68741000       0.00517000
O       -0.07769000      -2.25378000      -0.41567000       0.09020000       1.07645000      -0.56317000
C        1.05821000      -1.38682000      -2.32747000       0.01604000       1.50931000       1.26547000
H        1.65845000      -0.46976000      -2.20968000       0.20625000      -0.29954000      -0.27390000
H        0.58620000      -1.28051000      -3.30014000      -0.18200000      -0.37040000      -0.03537000
H        1.71521000      -2.25052000      -2.18811000      -0.47512000       0.12571000      -0.26815000
22
Lattice="100.0 0.0 0.0 0.0 100.0 0.0 0.0 0.0 100.0" Properties=species:S:1:pos:R:3:forces:R:3 config_type=vacuum energy=-11581.02950949 pbc="T T T"
C       -0.09420000       1.79864000       0.91913000       0.23277000       0.66030000      -0.82343000
C       -0.88888000       0.77759000       1.68663000      -0.84745000       1.19055000      -0.05993000
C        0.00215000      -0.19060000       2.06899000       0.53783000      -0.99576000       0.22976000
H       -1.77463000       1.05393000       2.25964000       0.27289000      -0.13358000      -0.19645000
C        1.15569000      -0.10454000       1.27849000       0.39687000      -0.74312000       0.04266000
H       -0.23333000      -1.00220000       2.74454000       0.11430000       0.08316000      -0.02326000
C        1.02570000       0.93141000       0.38201000      -0.69376000       0.34310000       0.47961000
H        1.93696000      -0.86174000       1.24670000      -0.20855000       0.25229000       0.09849000
H        1.76751000       1.26634000      -0.31599000       0.15511000       0.09892000      -0.14726000
H        0.35433000       2.50962000       1.62739000      -0.04380000      -0.07768000      -0.02216000
H       -0.63340000       2.38137000       0.14716000       0.23669000      -0.36647000       0.56216000
C       -0.65917000      -0.04441000      -0.93673000      -0.24976000      -0.14415000       0.07614000
C       -1.71580000       0.00271000      -0.03621000       0.33728000      -1.30838000       0.15792000
H       -2.48027000       0.73889000      -0.13348000      -0.29433000       0.46629000      -0.04832000
H       -2.04106000      -0.96160000       0.38240000       0.13530000       0.58603000      -0.24198000
C        0.05670000      -1.32475000      -1.14005000       0.26396000       2.28935000      -1.42140000
H       -0.53277000       0.73537000      -1.67080000       0.11512000       0.02471000      -0.08361000
O       -0.10325000      -2.25642000      -0.42247000      -0.32609000      -1.88846000       1.40344000
C        1.02670000      -1.35130000      -2.30640000       0.65636000      -0.21630000       0.38774000
H        1.72523000      -0.50216000      -2.27453000      -0.34518000      -0.15281000       0.00668000
H        0.49019000      -1.32401000      -3.24305000      -0.27481000       0.13094000      -0.28055000
H        1.61562000      -2.27212000      -2.26339000      -0.13639000       0.14489000      -0.01441000
118
Lattice="100.0 0.0 0.0 0.0 100.0 0.0 0.0 0.0 100.0" Properties=species:S:1:pos:R:3:forces:R:3 config_type=reactants_in_water energy=-78174.85337858 pbc="T T T"
C        5.74654000       7.23332000       6.62122000      -2.30224000      -1.91381000      -0.76926000
C        4.89554000       6.13410000       7.31723000      -0.08688000       0.89935000      -0.19063000
C        5.73599000       5.11061000       7.69224000       1.65085000      -0.68951000      -0.19774000
H        4.04861000       6.39392000       7.90802000      -0.40693000       0.19165000       0.35766000
C        6.91213000       5.22191000       6.91814000      -0.01044000       0.89730000       0.80508000
H        5.49183000       4.24962000       8.29024000      -0.13858000       0.18113000       0.15251000
C        6.87358000       6.38774000       6.18090000      -0.40527000      -0.55156000      -0.54971000
H        7.73204000       4.54270000       6.86292000       0.18731000      -0.56896000      -0.04881000
H        7.60939000       6.70513000       5.47192000       0.34213000       0.07259000      -0.17634000
H        6.01934000       7.90427000       7.37467000       0.63045000       1.25128000       1.11758000
H        5.12068000       7.74560000       5.87025000       0.83921000      -0.05254000       0.18730000
C        5.10769000       5.30205000       4.81988000      -0.42783000       0.77590000      -0.63623000
C        4.07620000       5.33258000       5.76622000       0.79806000      -0.08659000      -0.38680000
H        3.29380000       6.07391000       5.73744000       0.34466000      -0.28808000      -0.30101000
H        3.83274000       4.34693000       6.13625000      -0.31752000       0.07488000       0.20663000
C        5.83176000       4.04647000       4.61279000       0.42757000       0.89917000      -1.44309000
H        5.27510000       6.14021000       4.11977000      -0.08859000      -0.69044000       0.42755000
O        5.58290000       3.03313000       5.22498000      -0.26703000      -0.81111000       1.07899000
C        6.87586000       4.05027000       3.51086000      -1.03412000       0.41933000      -0.46177000
H        7.68358000       4.73450000       3.79504000      -0.10689000      -0.26501000      -0.33258000
H        6.30545000       4.44947000       2.61915000       0.96210000      -0.40921000       0.76649000
H        7.21238000       3.02887000       3.29166000      -0.31738000       0.71968000       0.00152000
O        5.30965000       6.85839000      10.17542000      -0.53588000      -0.19032000       0.87109000
H        5.64200000       7.25138000      10.98642000       0.11409000       0.20001000      -0.19845000
H        5.94216000       7.01668000       9.48589000       0.48603000       0.23409000      -0.44584000
O        4.67472000       3.62249000       1.15416000       0.26251000       0.57043000      -1.20194000
H        4.54153000       4.16823000       0.34439000       0.25651000      -0.46861000       0.94371000
H        5.32025000       2.94355000       0.92982000       0.06714000      -0.14562000      -0.03583000
O        2.70040000       1.75252000       0.39444000       0.66885000       1.81301000      -1.01866000
H        2.11116000       1.55989000       1.09617000      -0.81115000      -0.34520000       1.10976000
H        2.84961000       2.73878000       0.50147000       0.09090000      -1.85440000       0.12098000
O        3.49252000       1.81440000       9.66394000       0.39762000      -0.31493000      -0.16878000
H        3.72651000       1.59976000       8.73526000      -0.70836000       0.21226000       0.60561000
H        2.79598000       1.25097000       9.99633000      -0.20986000      -0.24315000      -0.41941000
O        2.90624000       1.82672000       4.61859000      -0.46740000       1.23874000       0.29663000
H        3.50461000       2.53583000       4.26786000      -0.68079000      -0.87910000       0.81205000
H        2.36255000       2.23373000       5.34171000       1.10878000      -0.35437000      -1.07666000
O        4.08137000       6.32801000       0.55813000      -0.47938000       0.11425000       1.20825000
H        5.00234000       6.37130000       0.83838000       0.10202000       0.05491000      -0.16877000
H        3.64161000       6.17315000       1.42842000       0.20239000      -0.16412000      -0.90671000
O        1.71214000       9.10601000       2.93412000      -1.08669000      -0.62976000       0.92353000
H        1.18434000       8.40353000       3.42470000       1.42104000       1.08999000      -0.79539000
H        1.96292000       9.73800000       3.62147000      -0.02719000      -0.25378000      -0.15217000
O        9.04794000       1.87504000       9.08321000      -1.15013000      -1.07852000       0.76068000
H        9.22332000       2.81087000       9.03696000       0.03527000       0.50296000       0.30046000
H        8.30438000       1.70853000       9.72554000       1.06098000       0.51634000      -1.23714000
O        1.04582000       7.52606000       0.69875000      -0.32536000       0.15417000       0.28070000
H        0.37859000       7.93098000       1.28329000       0.75793000      -0.17337000      -0.36370000
H        1.90528000       7.90821000       0.94085000      -0.43313000      -0.12163000      -0.00015000
O        7.43457000       0.19627000       6.56350000       0.45228000      -2.12823000      -0.48738000
H        7.02460000       1.00695000       6.75816000      -0.92394000       1.73289000       0.30530000
H        8.16274000       0.11061000       7.17676000       0.14300000       0.13265000       0.26794000
O        9.72166000       5.42443000       2.36454000      -0.78441000       0.07249000      -0.59538000
H        9.39691000       4.90439000       1.61353000      -0.00053000       0.15055000       0.42264000
H       10.54400000       5.01329000       2.59427000       0.59729000      -0.39289000       0.27586000
O        3.76445000       9.90022000       9.57037000      -0.43526000      -0.22080000       0.86054000
H        3.38656000      10.75156000       9.77107000      -0.05801000       0.46845000       0.27989000
H        3.77988000       9.89862000       8.62643000       0.50955000      -0.15492000      -1.18329000
O        3.35930000       4.47765000       9.63851000      -0.10469000      -0.21078000       0.74688000
H        2.88956000       4.33505000       8.81645000      -0.21354000      -0.17060000      -0.22860000
H        3.31149000       3.61250000      10.09945000       0.09596000       0.80674000      -0.72005000
O        2.37796000       4.26246000       2.20282000      -1.98750000       1.15878000      -1.41448000
H        1.72667000       4.60939000       1.51549000       1.31711000      -0.49944000       1.14398000
H        1.78825000       4.12113000       2.94826000       0.10124000      -0.14544000       0.31467000
O        8.23887000       7.89687000       8.78996000      -0.11952000       0.81074000       0.84567000
H        8.32571000       8.76199000       9.23327000      -0.00565000      -0.06850000      -0.44771000
H        8.27619000       7.35139000       9.56966000      -0.01174000      -0.84425000       0.20665000
O        0.82168000       5.72226000       9.84968000      -0.11431000       0.97845000       0.51171000
H        1.70479000       6.06131000      10.12360000      -0.75060000      -0.56354000      -0.26279000
H        0.14343000       6.31022000      10.24654000       0.83807000      -0.44649000      -0.42458000
O        1.84359000      10.78595000       0.40649000      -0.62411000      -0.58027000      -0.73338000
H        2.04955000      10.68898000       1.32158000       0.44454000       0.21758000       1.09195000
H        1.26006000      10.01572000       0.31524000       0.14529000       0.27023000      -0.47202000
O        6.11825000       1.07872000       2.03693000       1.45612000       0.79500000      -0.58982000
H        6.46030000       0.19701000       1.95691000       0.14386000      -0.48622000      -0.09257000
H        5.21339000       1.00053000       2.23972000      -1.82470000      -0.22023000       0.42510000
O        9.20446000       9.65333000       7.05151000       1.29512000       0.60274000      -0.42864000
H        8.94732000       8.78970000       7.35122000      -0.36172000      -0.87037000       0.26471000
H       10.16951000       9.56201000       6.91807000      -0.83748000       0.27907000      -0.04530000
O       10.86488000       4.77582000       9.38317000      -0.21949000       0.08994000       0.63533000
H       11.12129000       4.77498000      10.32303000      -0.06744000      -0.06393000      -0.60132000
H       10.09935000       5.36083000       9.35109000       0.10599000       0.02214000      -0.14682000
O        0.67697000       4.04890000       7.48937000      -0.52464000      -1.28097000       0.96685000
H        0.55987000       4.46396000       8.37694000       0.18746000      -0.07369000      -0.72366000
H        0.45972000       3.08668000       7.64218000       0.63029000       1.56851000      -0.13830000
O        5.07683000      10.52672000       6.71737000      -0.46032000      -0.14392000       0.62433000
H        5.85679000      11.04857000       6.53827000       0.28420000       0.10562000      -0.26065000
H        4.43852000      10.75301000       6.04770000       0.00755000       0.11658000      -0.49443000
O        5.83684000       0.77495000       8.89985000      -0.62430000      -0.57198000       0.28471000
H        5.80787000      -0.11449000       8.50928000       0.25057000       0.48811000      -0.06275000
H        5.07599000       0.81147000       9.51470000       0.81667000       0.12552000      -0.18980000
O        9.22507000       2.17200000       5.56303000      -0.88700000       1.00473000       0.27415000
H       10.08958000       1.83180000       5.43908000       1.17547000      -0.52210000      -0.26686000
H        9.04827000       2.10263000       6.49914000      -0.09910000      -0.04950000       0.34027000
O        5.25458000       9.48697000       2.83100000      -1.00664000       0.11784000       1.30225000
H        5.85053000       9.48630000       2.11282000       1.26538000      -0.06756000      -1.02538000
H        4.39298000       9.39249000       2.43956000      -0.55426000      -0.17261000      -0.33457000
O        1.89337000       7.39790000       5.09865000      -0.15975000      -0.14486000      -0.44443000
H        1.43297000       8.07479000       5.57923000      -0.35681000       0.35605000       0.57364000
H        1.54008000       6.56508000       5.43568000      -0.07520000       0.05402000       0.04513000
O        8.92293000       1.56369000       3.00289000       0.64794000      -1.44790000      -1.24448000
H        8.57465000       2.09481000       3.68774000      -0.28299000       1.04291000       1.32222000
H        8.53905000       0.70832000       3.24068000       0.17279000       0.19673000      -0.20967000
O        7.89516000      10.00883000       4.21330000      -1.60976000       0.41771000       0.77429000
H        8.68719000      10.00883000       3.72012000       1.29920000      -0.37062000      -0.75551000
H        7.98838000       9.44845000       4.98223000       0.37674000      -0.00716000       0.13349000
O        0.10718000       9.38584000       9.03680000      -0.81975000      -0.03576000       0.04126000
H        0.61571000       9.87693000       9.66633000       0.32034000       0.45581000       0.71633000
H        0.77522000       9.06655000       8.45428000       0.68086000      -0.59649000      -0.70119000
O        1.08408000       1.12004000       7.60460000       0.41896000       1.03903000      -0.24965000
H        0.86534000       0.43661000       8.20663000      -0.30376000      -1.02830000       0.91385000
H        0.38086000       1.10018000       6.96604000      -0.36285000      -0.15937000      -0.66315000
O       10.07718000       9.19032000      10.70160000       0.44653000       0.20722000      -0.52719000
H       10.65740000       9.17932000       9.92319000      -0.31247000      -0.24580000       0.22813000
H       10.30985000      10.03181000      11.10624000      -0.17588000      -0.02018000       0.26061000
O        8.50524000       9.82746000       1.48852000       0.38751000      -2.22548000       1.96253000
H        8.08472000      10.61302000       1.29915000      -1.48179000       2.70790000      -0.53456000
H        9.00768000       9.61452000       0.73865000       1.07426000      -0.54878000      -1.52455000
22
Lattice="100.0 0.0 0.0 0.0 100.0 0.0 0.0 0.0 100.0" Properties=species:S:1:pos:R:3:forces:R:3 config_type=vacuum energy=-11580.85744383 pbc="T T T"
C       -0.10834000       1.80154000       0.92629000       0.93653000       0.75409000      -0.79997000
C       -0.88372000       0.78252000       1.69538000      -1.04872000       1.51269000      -0.43078000
C       -0.00449000      -0.17968000       2.05093000       1.02756000      -1.83889000       1.01525000
H       -1.76564000       1.03888000       2.25507000      -0.14544000      -0.00906000       0.06830000
C        1.16197000      -0.08379000       1.28269000       0.51898000      -1.55005000       0.10685000
H       -0.22860000      -1.00085000       2.73046000       0.11159000       0.25866000      -0.18454000
C        1.02391000       0.92158000       0.37800000      -1.42286000       1.14330000       0.82050000
H        1.93042000      -0.86032000       1.23384000      -0.28131000       0.39415000       0.19639000
H        1.74896000       1.27006000      -0.29996000       0.69808000       0.30373000      -0.70901000
H        0.35407000       2.54162000       1.61087000      -0.15207000      -0.37134000      -0.13782000
H       -0.65053000       2.37031000       0.16309000       0.06069000      -0.20014000       0.26191000
C       -0.64584000      -0.06354000      -0.92589000      -0.46818000       1.68167000      -0.87863000
C       -1.69298000       0.01953000      -0.03701000      -0.55852000      -2.64616000       1.02253000
H       -2.48697000       0.71942000      -0.12872000      -0.21725000       0.72896000      -0.16101000
H       -2.04087000      -0.95997000       0.40712000       0.46120000       1.21902000      -0.58846000
C        0.04465000      -1.30606000      -1.15510000       1.13877000      -0.15232000      -0.51527000
H       -0.53858000       0.74519000      -1.66425000       0.16772000      -0.54487000       0.30320000
O       -0.08795000      -2.26740000      -0.44179000      -0.51110000      -0.90840000       0.90899000
C        1.03596000      -1.37937000      -2.29412000       0.03051000       1.87214000      -0.27846000
H        1.72809000      -0.49827000      -2.28633000      -0.62064000      -0.64221000       0.01210000
H        0.48953000      -1.34684000      -3.23248000      -0.11790000       0.09501000      -0.20313000
H        1.61696000      -2.26456000      -2.26808000       0.40947000      -0.87052000       0.23790000
22
Lattice="100.0 0.0 0.0 0.0 100.0 0.0 0.0 0.0 100.0" Properties=species:S:1:pos:R:3:forces:R:3 config_type=vacuum energy=-11580.62819096 pbc="T T T"
C       -0.03672000       1.85154000       0.91119000      -1.26346000       0.03525000       0.70663000
C       -0.94239000       0.78170000       1.60439000       0.28398000      -0.53835000      -0.13987000
C       -0.01881000      -0.23962000       2.03277000       0.00891000       1.44932000      -0.35801000
H       -1.90239000       0.96062000       2.11045000       0.86961000       0.40377000       0.05754000
C        1.10401000      -0.11285000       1.23504000       1.32755000      -0.35021000      -0.31644000
H       -0.12684000      -0.99496000       2.79667000      -0.41774000      -0.09969000      -0.34114000
C        1.05362000       1.01625000       0.39302000      -0.97450000      -1.71167000       0.60481000
H        1.83266000      -0.91819000       1.13137000      -0.03811000       0.43666000       0.20860000
H        1.74802000       1.38708000      -0.33437000       0.41956000      -0.19829000      -0.01450000
H        0.37512000       2.53406000       1.66729000      -0.13598000      -0.13951000       0.06341000
H       -0.52191000       2.44957000       0.15212000      -0.25400000       0.13461000      -0.04704000
C       -0.62143000      -0.02813000      -0.88693000       0.65734000      -1.05736000      -0.70183000
C       -1.67068000      -0.01374000       0.01383000      -0.50250000      -0.05083000       1.34436000
H       -2.44037000       0.72645000      -0.12809000      -0.19470000       0.06738000      -0.03381000
H       -2.02119000      -0.98637000       0.41209000       0.24028000       0.75229000      -0.49912000
C        0.00795000      -1.33845000      -1.15164000       0.97427000      -0.57205000       0.91653000
H       -0.41207000       0.81115000      -1.52033000      -0.17185000      -0.07891000      -0.54880000
O       -0.14206000      -2.31163000      -0.37974000       0.02334000       1.88010000      -1.73104000
C        1.05650000      -1.36032000      -2.29817000      -0.20044000       0.06879000       1.11129000
H        1.81578000      -0.59042000      -2.06604000      -0.40555000      -0.23872000      -0.19223000
H        0.62563000      -1.16667000      -3.27717000      -0.17425000       0.18597000       0.04177000
H        1.55748000      -2.32169000      -2.29108000      -0.00667000      -0.12765000      -0.07121000
118
Lattice="100.0 0.0 0.0 0.0 100.0 0.0 0.0 0.0 100.0" Properties=species:S:1:pos:R:3:forces:R:3 config_type=reactants_in_water energy=-78168.48932348 pbc="T T T"
C        5.68346000       7.18986000       6.64891000      -0.11207000      -0.11101000      -0.12683000
C        4.87191000       6.17740000       7.41838000       0.04156000       0.21808000       0.04748000
C        5.76285000       5.17128000       7.80558000      -1.47630000      -0.36044000      -1.34382000
H        3.99704000       6.44672000       7.99201000       0.08916000      -0.09366000      -0.06907000
C        6.91477000       5.25013000       7.02144000       0.02572000       0.24358000      -0.93388000
H        5.53927000       4.37712000       8.50069000      -0.41158000      -0.01126000      -0.70590000
C        6.78320000       6.30828000       6.13985000       0.38028000      -0.16252000       0.24486000
H        7.70367000       4.51517000       7.00683000      -0.03325000       0.03786000       0.01475000
H        7.53838000       6.63622000       5.44209000      -0.02570000       0.09505000      -0.04401000
H        6.11653000       7.89680000       7.36627000      -0.08921000       0.07084000      -0.10194000
H        5.14232000       7.75235000       5.89481000       0.11557000      -0.14123000       0.11897000
C        5.10394000       5.32733000       4.80340000      -0.09315000      -0.29579000      -0.33958000
C        4.05770000       5.36098000       5.71525000       0.02828000       0.11592000      -0.17093000
H        3.29633000       6.12216000       5.61504000      -0.05441000      -0.05705000      -0.04407000
H        3.72848000       4.41837000       6.12557000       0.05975000       0.00786000      -0.02213000
C        5.82878000       4.07143000       4.59485000      -0.24015000       0.58904000       0.05295000
H        5.23046000       6.11091000       4.06977000       0.00083000       0.05640000       0.01339000
O        5.66512000       3.10913000       5.32338000       0.00950000      -0.34832000       0.13778000
C        6.80456000       4.02397000       3.44137000      -0.02757000       0.27270000      -0.08575000
H        7.47298000       4.88474000       3.46615000       0.03661000      -0.05854000       0.08052000
H        6.25537000       4.06411000       2.49931000       0.12062000       0.11950000       0.28307000
H        7.37889000       3.10320000       3.48301000      -0.01304000       0.10577000       0.00612000
O        9.77562000       7.93860000       2.34070000      -0.58766000      -2.43995000      -0.77511000
H        9.56692000       8.05554000       1.37978000       0.26924000      -0.19185000       1.62628000
H        9.18606000       7.19920000       2.63446000       0.91559000       0.96469000      -0.24698000
O        3.14409000       5.25854000       9.75050000      -0.90704000      -0.43798000      -0.09881000
H        3.41228000       4.39089000       9.35572000      -0.83130000       0.81820000       0.37194000
H        2.15416000       5.23368000       9.75500000       1.47841000      -0.26310000      -0.02883000
O        3.34314000       2.73173000       2.79149000       1.41875000       0.00275000      -0.72186000
H        3.50680000       1.84316000       2.38620000       0.15906000       1.37395000       0.36466000
H        4.14269000       3.26468000       2.55214000      -0.86041000      -1.03968000       0.61349000
O        8.13565000       8.76797000       9.02654000      -2.91626000      -1.14758000      -0.17258000
H        7.27531000       9.15498000       8.72548000       1.26051000      -0.46012000       0.20898000
H        8.28138000       7.99206000       8.42878000      -0.33236000       1.16249000       0.74651000
O        1.47134000       8.18615000       7.70633000       0.76536000      -1.54906000       0.74129000
H        1.30783000       7.46473000       8.36469000       0.27376000       1.09191000      -0.97043000
H        2.45767000       8.26119000       7.66032000      -1.20844000       0.13912000       0.34956000
O        1.43961000       5.38389000       3.21036000      -0.63083000      -0.06695000      -1.44448000
H        1.81822000       4.94819000       2.40573000      -0.58320000       0.58045000       1.33932000
H        0.53119000       5.66628000       2.93536000       1.25175000      -0.47183000       0.41095000
O        4.61933000       9.07440000       2.64247000       1.06807000       0.13455000      -2.77623000
H        4.22539000       9.90080000       2.26500000       0.53694000      -1.42860000       0.44809000
H        5.20097000       8.72493000       1.92126000      -1.04968000       0.40692000       0.84085000
O        9.59549000       1.81773000       3.32179000      -1.88627000      -0.98032000      -0.14801000
H        9.03775000       1.09131000       3.69842000       0.68140000       0.99530000      -0.33671000
H        9.05318000       2.18808000       2.58062000       0.97742000      -0.11002000       1.20322000
O        2.56656000       2.85861000       8.38744000      -0.68060000       0.62002000      -1.72277000
H        2.80400000       2.94868000       7.43030000      -0.12075000      -0.35815000       1.27627000
H        1.63203000       2.53117000       8.38150000       1.49815000       0.15880000       0.26443000
O        2.31429000       8.01558000       1.72729000      -2.01447000       1.06603000       0.51733000
H        1.52599000       8.42458000       1.28923000       0.98894000      -0.55035000       0.71136000
H        2.18405000       8.19708000       2.69201000       0.20211000      -0.04881000      -1.16944000
O        7.46171000       0.05433000       8.58636000      -1.70143000       0.46312000      -0.58874000
H        6.65527000       0.46733000       8.98596000       1.04118000      -0.48012000      -0.76223000
H        7.44553000       0.34394000       7.63954000       0.05521000      -0.28978000       1.32135000
O        1.63221000       0.59298000       9.00892000      -0.20381000      -2.32772000      -0.68335000
H        2.37773000       0.04347000       9.35942000      -1.04071000       1.08480000      -0.31591000
H        1.24352000       0.04753000       8.27953000       0.51353000       0.58192000       1.05208000
O        9.65703000       9.60250000       7.55333000       2.56230000      -0.16584000      -0.97795000
H       10.50273000       9.88432000       7.98458000      -1.08085000      -0.41930000      -0.66083000
H        9.81049000       8.65753000       7.30020000       0.06654000       1.43402000       0.16547000
O        0.95772000       2.24512000       2.10571000       0.61346000      -0.69180000      -1.12723000
H        1.40956000       1.36771000       2.18695000      -0.66976000       1.32576000      -0.08954000
H        1.62686000       2.82919000       1.66788000      -0.86582000      -1.04077000       1.00996000
O       10.75336000       3.58863000       1.88224000      -0.06410000       0.15060000      -1.83236000
H       10.77692000       2.74188000       1.36935000       0.04941000       0.90670000       0.64323000
H       10.73735000       4.29723000       1.19070000       0.11589000      -0.99309000       0.91588000
O        9.42349000       7.31664000      10.72414000      -0.61782000       0.42574000      -0.54897000
H        8.76670000       6.89827000      10.11242000       0.86128000       0.60943000       1.09368000
H        9.24969000       8.28852000      10.64770000       0.02974000      -1.69068000       0.09147000