124
Lattice="100.0 0.0 0.0 0.0 100.0 0.0 0.0 0.0 100.0" Properties=species:S:1:pos:R:3:forces:R:3 config_type=reactants_in_water energy=-82337.12237592 pbc="T T T"
C        5.64629000       7.23775000       6.65136000       0.74193000       0.20319000       0.08621000
C        4.80922000       6.24456000       7.39897000      -0.90046000       0.75220000       0.47963000
C        5.63443000       5.21005000       7.80900000       0.37985000       0.67649000      -0.42233000
H        3.86224000       6.59050000       7.87352000       1.12516000      -0.95359000      -0.64649000
C        6.86762000       5.33025000       7.11069000       0.15022000       0.27894000       0.06765000
H        5.32288000       4.36785000       8.38780000       0.08836000      -0.39766000       0.26802000
C        6.84641000       6.43204000       6.26198000      -1.05029000      -1.04314000       0.83600000
H        7.67542000       4.62202000       7.24232000      -0.09045000      -0.10341000      -0.25362000
H        7.59321000       6.75358000       5.55421000      -0.05881000       0.02179000       0.26027000
H        5.97656000       7.99856000       7.36942000      -0.05048000       0.01423000      -0.18487000
H        5.17854000       7.71341000       5.80956000      -0.11895000       0.43285000       0.06665000
C        4.97258000       5.38400000       4.87023000       0.52358000      -0.44822000      -0.99755000
C        3.90254000       5.51048000       5.73024000      -0.30596000      -0.64586000      -0.48751000
H        3.16255000       6.33006000       5.53328000       0.84430000      -0.89733000       0.54477000
H        3.52417000       4.57871000       6.18642000       0.01333000       0.81088000      -0.21823000
C        5.76162000       4.12742000       4.71137000       0.09714000       1.49010000      -0.04383000
H        5.16864000       6.14115000       4.07789000      -0.22581000      -0.72347000       0.85953000
O        5.77449000       3.16558000       5.46964000      -0.10157000       0.56489000      -0.41630000
C        6.62846000       4.17763000       3.45301000       0.15995000      -0.24541000       0.13138000
H        7.51224000       4.83743000       3.47850000      -0.42714000      -0.23714000       0.60198000
H        6.03763000       4.53911000       2.61016000      -0.22524000      -0.19585000       0.16033000
H        7.00237000       3.17419000       3.24916000      -0.11395000       0.05942000      -0.13493000
O        3.17887000       5.39372000       2.72048000       0.16030000       0.93763000      -0.94287000
H        2.65727000       5.88511000       3.32977000      -0.54449000       0.70708000       0.53200000
H        3.49661000       4.66417000       3.22867000       0.03417000      -0.85836000       0.10036000
O        1.22004000       7.97123000       7.20626000       0.04372000       0.13715000       0.39603000
H        1.64663000       8.15338000       6.37919000       0.47493000       0.12626000      -0.61101000
H        0.31893000       7.78699000       6.94619000      -0.37994000      -0.17023000       0.14996000
O        7.85688000       4.07097000       0.90706000      -0.13205000      -0.50341000      -1.59698000
H        8.41741000       3.50431000       1.42136000       0.57804000      -0.59310000       0.62695000
H        7.62733000       4.76323000       1.49791000      -0.36303000       0.86391000       0.84093000
O        6.78301000       1.33466000       7.83954000       1.55796000       0.42099000      -0.34921000
H        6.68787000       1.47554000       6.87959000       0.12339000       0.01330000       0.56318000
H        7.70959000       1.61686000       8.07311000      -1.40633000      -0.69600000      -0.24316000
O        2.68121000       8.27972000       2.18564000      -0.16023000      -0.88075000       0.56243000
H        3.17011000       8.89553000       1.68054000       1.20777000       0.68267000      -1.06052000
H        1.97779000       8.83600000       2.46833000      -1.16790000       0.56998000       0.67494000
O        6.34844000       5.54488000      11.03670000       1.09651000      -0.38750000       1.28023000
H        6.32028000       6.48735000      11.10693000       0.13286000       0.87427000       0.06965000
H        5.71042000       5.33055000      10.39878000      -1.28895000      -0.53562000      -1.43630000
O        3.27786000       3.23482000       1.62835000       0.43846000      -1.80536000       1.74105000
H        3.53673000       3.44570000       0.75857000       0.31722000       0.32940000      -1.57537000
H        3.35808000       2.26267000       1.70267000      -0.67947000       0.85723000      -0.50888000
O        4.57987000       0.99777000       4.26338000       2.51258000      -0.18119000      -0.95095000
H        5.48687000       1.02846000       3.81433000      -1.72364000       0.39037000       0.73967000
H        4.68633000       0.17157000       4.71834000      -0.26221000      -0.76243000       0.68748000
O        9.78197000       3.12329000       3.42519000      -1.77697000      -0.72076000      -0.16803000
H        9.70333000       3.69095000       4.17481000      -0.02609000       0.86134000       0.61476000
H       10.67152000       3.15124000       3.15286000       1.59601000       0.18748000      -0.76198000
O        1.81307000       4.22248000       8.41624000      -0.65190000      -0.74215000      -0.04204000
H        1.35488000       3.40332000       8.72115000       0.45047000       0.97750000      -0.15035000
H        2.70450000       4.09687000       8.74856000       0.23184000      -0.14178000      -0.03002000
O        2.21545000       1.43532000       5.15917000      -0.39940000      -0.06272000       0.27791000
H        2.54792000       2.06473000       5.80938000       0.21458000      -0.20051000      -0.14349000
H        2.97980000       1.11683000       4.64868000      -0.27034000       0.62693000       0.34753000
O       10.60841000       4.04309000       0.56519000       0.44808000      -1.03065000       0.28047000
H        9.74032000       4.31244000       0.30885000      -1.04950000       0.23174000      -0.27779000
H       11.12633000       4.82549000       0.51656000       0.76964000       0.90922000      -0.01763000
O        0.74352000       2.21736000       3.02759000       0.04069000       0.07969000       0.69795000
H        1.23875000       2.20748000       3.88723000      -0.60947000      -0.20588000      -0.84385000
H        1.07825000       1.43974000       2.58179000       0.16355000      -0.04129000       0.04732000
O        9.39968000       8.77824000       5.98234000      -0.43649000       0.87532000       0.71253000
H        9.16919000       7.86310000       5.92599000       0.02216000      -0.85491000      -0.04779000
H        9.99959000       8.89842000       5.26504000       0.67369000       0.08312000      -0.71276000
O       -0.03784000       6.67436000       1.18810000       0.35199000       0.57891000       1.37900000
H        0.54795000       7.16074000       1.81680000      -0.58075000      -0.89426000      -0.85549000
H        0.25124000       6.98513000       0.33925000       0.25280000       0.13770000      -0.62400000
O        5.61078000       0.85705000       1.89305000      -0.33941000       0.28420000       0.05910000
H        5.87148000       1.61644000       1.38232000       0.70626000       0.37892000      -0.64095000
H        4.80437000       1.22109000       2.28967000       0.00891000      -0.62697000      -0.12125000
O        9.58989000       7.49754000      10.13948000       0.47180000       1.34118000      -0.27590000
H       10.07521000       8.17086000      10.66475000      -0.45060000      -0.82823000      -0.32857000
H        9.41521000       7.98971000       9.31041000       0.03785000      -0.49179000       0.53257000
O        4.58446000       2.11182000       8.93628000      -0.05306000       0.88366000       0.54646000
H        5.50146000       1.82845000       8.74388000       0.11147000       0.14980000      -0.30053000
H        4.10173000       1.30255000       8.91779000      -0.66117000      -0.77597000      -0.01078000
O        3.50709000       8.37250000       9.37395000       0.21184000       0.91993000      -1.89358000
H        3.53789000       8.88276000       8.50720000      -0.05800000      -0.70010000       1.73456000
H        3.25249000       7.51275000       9.01775000      -0.34470000       0.11058000       0.66461000
O        7.41093000       6.84329000       1.07769000       0.91625000      -1.00867000      -1.20102000
H        6.64482000       7.30763000       0.77222000      -0.70698000       0.32966000      -0.30228000
H        7.73058000       6.29515000       0.31325000      -0.48823000       0.79372000       0.94325000
O        9.01845000       1.18950000       9.82094000       1.03405000       1.42232000      -1.33365000
H        9.03571000       1.94141000      10.44089000      -0.17164000      -0.18846000      -0.13196000
H        9.49883000       1.60214000       9.04429000      -0.63147000      -0.77922000       1.15561000
O        8.80131000       4.09027000      10.81178000      -0.14487000      -1.26294000       0.33048000
H        9.09960000       4.83348000      10.32132000       0.65587000       1.02986000      -0.61668000
H        7.90516000       4.34745000      11.02950000      -0.49181000       0.14642000       0.21202000
O        8.34530000       1.28843000       5.28901000      -0.58667000       1.02559000       0.02633000
H        8.34451000       0.64142000       4.58917000       0.17517000      -0.24249000      -0.37124000
H        7.89601000       2.06717000       4.90237000       0.08880000      -0.63990000       0.18905000
O        1.55477000       2.76011000      10.73126000       1.83665000      -0.02740000       0.23544000
H        2.53172000       2.80452000      10.90918000      -1.20434000      -0.00653000      -0.55686000
H        1.26253000       2.23162000      11.46513000      -0.54604000      -0.38202000       0.38364000
O        0.80199000       6.69655000      10.32335000      -0.27498000       1.18201000       0.43451000
H        0.85376000       6.00744000       9.68256000       0.22805000      -1.00356000      -0.87315000
H        1.34180000       6.42107000      11.05597000       0.24768000      -0.27143000       0.33805000
O        9.12247000       6.80635000       3.07813000       3.24972000       0.00485000      -0.22807000
H        8.40044000       6.75510000       3.62903000      -2.33826000      -0.28806000       2.17766000
H        8.73412000       7.01656000       2.25819000      -0.60680000       0.42967000      -1.69388000
O        6.71511000       9.62342000       4.47016000       1.75232000      -0.70544000      -0.40668000
H        5.92007000       9.96256000       4.07419000      -0.15416000       0.15252000      -0.53870000
H        7.42408000       9.42208000       3.80219000      -1.49725000       0.52586000       0.86894000
O        2.01195000       0.97003000       0.46144000      -1.29322000      -0.52288000      -0.32011000
H        2.04545000       0.69355000      -0.46748000       0.21563000       0.06750000       0.37286000
H        1.05206000       0.88151000       0.66630000       1.03005000       0.34084000      -0.14370000
O        5.01843000      10.11078000       6.67917000      -0.91286000      -0.37799000      -0.39440000
H        4.10175000      10.33827000       6.84012000      -0.28115000       0.22183000      -0.03670000
H        5.47294000      10.59476000       7.34930000       0.74517000       0.62462000       0.62767000
O        4.26995000      11.09712000      10.13464000      -1.57621000       1.08840000       0.22472000
H        3.33787000      10.80025000      10.25537000       0.69794000       0.47161000      -0.09502000
H        4.68504000      10.31690000       9.83766000       0.86500000      -1.47734000      -0.23616000
O       10.03527000       9.58584000       1.00084000       0.65413000      -0.01619000       0.79905000
H        9.09194000       9.57351000       0.90754000      -0.72877000      -0.01943000      -0.17444000
H       10.16727000       9.58370000       1.96575000       0.03902000      -0.06876000      -0.59804000
O        9.96243000       5.95197000       5.75941000       0.72757000      -0.40867000      -0.55713000
H       10.89107000       5.66113000       5.71876000      -0.54644000       0.35006000      -0.14920000
H        9.72209000       5.79221000       6.66349000      -0.30997000      -0.27334000       0.82035000
O        9.98430000       2.76266000       7.06803000      -2.26969000       0.43679000      -0.57043000
H        9.57805000       2.70838000       6.16851000       0.62777000      -0.48897000       1.14721000
H       10.90799000       2.77917000       6.95908000       1.70584000      -0.10037000      -0.28792000
O        1.06166000      10.18904000      10.23854000      -0.34918000      -0.55683000      -0.47824000
H        0.24260000      10.18940000       9.71334000       0.51752000       0.18462000       0.28978000
H        1.28240000       9.24052000      10.26353000       0.08881000       0.26538000      -0.03611000
118
Lattice="100.0 0.0 0.0 0.0 100.0 0.0 0.0 0.0 100.0" Properties=species:S:1:pos:R:3:forces:R:3 config_type=reactants_in_water energy=-78176.51095562 pbc="T T T"
C        4.50178000       8.50576000       7.06316000       1.14619000       1.52900000      -0.70824000
C        5.13737000       7.21381000       7.40755000       3.29050000       0.43246000      -0.14195000
C        6.50734000       7.40931000       7.64342000      -3.20050000       1.06296000      -0.17220000
H        4.68149000       6.28290000       7.20403000      -0.49488000      -0.80570000       0.19408000
C        6.72963000       8.86438000       7.63589000       0.49307000       0.06121000      -0.21603000
H        7.30401000       6.70971000       7.78813000      -0.06317000      -0.48448000       0.06937000
C        5.61226000       9.54673000       7.32043000      -0.05606000      -0.56855000       0.25530000
H        7.70735000       9.32494000       7.78501000      -0.38961000      -0.12516000      -0.03382000
H        5.62663000      10.63079000       7.14051000      -0.54317000      -0.68407000       0.11600000
H        3.51059000       8.72703000       7.42374000      -0.19130000      -0.01384000       0.43794000
H        4.44606000       8.55851000       5.95568000      -0.27367000      -0.25001000       0.22397000
C        4.88422000       6.62350000       3.49129000       0.60580000       1.70155000       0.09284000
C        3.78166000       7.26528000       3.10698000      -0.33432000       1.23367000       0.44876000
H        3.46452000       8.29984000       3.44206000       0.91343000      -1.29856000      -0.24501000
H        3.06399000       6.86315000       2.43281000      -0.40782000      -0.75844000      -0.35763000
C        5.30531000       5.25364000       3.05707000      -0.51468000       1.09829000       1.58828000
H        5.60640000       7.23430000       4.08838000      -0.55763000      -0.95726000      -0.21139000
O        4.67532000       4.61461000       2.26531000      -0.81484000      -1.10021000      -1.29379000
C        6.47736000       4.75101000       3.78447000       1.02985000       2.13162000       0.65491000
H        6.30071000       4.71634000       4.86242000      -0.30929000      -0.04455000      -0.09833000
H        7.23354000       5.57255000       3.67682000      -0.23758000      -0.92938000      -0.07202000
H        6.81726000       3.82436000       3.44261000       0.64199000      -1.30784000      -0.61540000
O        9.87257000       5.50682000       3.36727000      -0.52648000       2.49859000      -0.25332000
H       10.23648000       4.67329000       3.48247000       1.25333000      -2.71442000       0.58535000
H        9.20744000       5.35975000       2.69867000      -0.45564000       0.32850000      -0.49252000
O        1.04941000       5.19792000       9.67687000      -0.99475000       1.18255000       0.95101000
H        0.77957000       5.33610000       8.78761000      -0.57490000       0.46298000      -1.19028000
H        1.57872000       4.43720000       9.57054000       1.60063000      -1.53873000       0.24419000
O        5.74287000       1.88358000       1.89659000       0.29068000       0.45500000      -0.50047000
H        5.16981000       1.13184000       2.01254000      -0.29703000      -0.22500000       0.20299000
H        5.19953000       2.68935000       1.97470000       0.21219000      -0.06341000       0.18424000
O        4.97031000       9.48278000      10.93905000       0.18920000      -1.47436000       0.88019000
H        5.34759000       8.58316000      10.80738000      -0.44811000       1.08380000      -0.11357000
H        5.06389000       9.93083000      10.11274000       0.24291000       0.32425000      -0.95496000
O        1.83841000       6.18301000       6.55358000      -0.59548000      -0.91770000       0.63368000
H        1.65917000       6.83766000       7.23150000       0.21688000       0.24539000       0.30578000
H        2.35741000       6.60290000       5.89194000       0.59242000       0.66303000      -0.85132000
O        1.18548000       5.55207000       1.40951000      -1.41435000       2.03255000       0.61157000
H        0.72818000       4.88231000       1.89070000      -0.32391000      -0.80967000       0.60351000
H        1.85505000       5.12456000       0.94566000       1.80215000      -1.34871000      -1.17404000
O        8.13447000       7.01070000       1.50843000       1.98043000       0.38706000       0.24222000
H        8.79878000       7.57778000       1.99372000      -1.20445000      -0.83220000      -0.87201000
H        7.31899000       7.16643000       1.95665000      -0.85761000       0.42294000       0.45828000
O        7.33683000       0.10414000       5.27505000       1.83798000       0.40319000      -1.09691000
H        7.64812000      -0.34602000       4.46018000       0.16971000       0.79977000       0.55672000
H        6.60140000      -0.38867000       5.51533000      -2.14526000      -1.30690000       1.16184000
O        2.95062000       3.21631000       9.08140000       0.86290000       0.37979000       0.81565000
H        3.66319000       2.86675000       9.64879000      -0.54874000       0.46057000      -0.38286000
H        2.48814000       2.42337000       8.81666000      -0.33381000      -0.64375000      -0.12432000
O        1.32725000       9.32798000       1.93793000       0.69174000       0.44508000      -1.48458000
H        0.93797000       9.00477000       2.72666000      -0.57997000      -0.53212000       1.20593000
H        1.54561000       8.55394000       1.40602000      -0.20344000       0.05348000       0.18144000
O        5.03761000      -1.44476000       7.62007000       0.94456000       0.33459000       1.72548000
H        4.36197000      -1.23607000       7.01487000      -1.25217000       0.32181000      -1.20397000
H        4.85773000      -0.90126000       8.41555000       0.27942000      -0.52002000      -0.71413000
O       -0.40801000       0.36273000       7.11098000      -0.01116000      -0.36690000       0.92578000
H       -1.26901000       0.17999000       7.51232000       0.31006000       0.12962000      -0.15497000
H       -0.58356000       0.76926000       6.27108000      -0.11908000       0.30976000      -0.54670000
O       10.98924000       7.95921000       1.43739000      -0.36802000       0.21858000       2.02196000
H       11.28571000       7.82277000       0.57264000       0.45243000      -0.17854000      -2.24355000
H       11.39831000       7.24297000       1.92728000      -0.18701000      -0.22262000       0.44221000
O       -0.90924000       1.20282000       1.68597000       0.21674000      -1.31307000      -0.23230000
H       -0.56049000       1.29851000       2.56966000       0.39229000       0.20909000       0.30206000
H       -1.34385000       2.01123000       1.49886000      -0.62118000       1.16417000      -0.22004000
O       10.57295000       2.46801000       3.59734000       0.20505000       0.12036000       2.13658000
H       11.13621000       1.96426000       3.02589000       0.43837000      -0.31172000      -0.68513000
H       10.82234000       2.15738000       4.50887000      -0.35842000       0.72371000      -1.25116000
O       12.44751000       6.38994000      14.16541000      -0.85093000      -1.04955000       0.31637000
H       12.02432000       5.80669000      14.83302000       0.39148000       0.67155000      -0.45467000
H       11.88469000       6.18765000      13.40228000       0.25718000       0.24946000       0.16449000
O       10.85094000       4.42832000       8.91589000      -0.71661000       0.62654000      -0.53433000
H       11.64659000       4.37062000       9.40503000       1.28717000      -0.65963000       0.95472000
H       10.88917000       5.36324000       8.68682000      -0.49475000       0.00954000      -0.31857000
O        1.43321000       2.45731000       2.87961000      -2.37282000      -1.39413000      -1.80104000
H        1.58269000       2.27515000       1.90309000       0.31069000       0.58765000       1.74823000
H        2.16883000       2.85226000       3.27035000       1.93697000       0.97794000       0.79481000
O        8.75123000       8.91657000       3.75236000      -0.92649000       0.27703000      -0.03269000
H        9.03419000       8.09866000       4.14409000       0.43680000      -0.50185000       0.22320000
H        9.44872000       9.24712000       3.18982000       0.42764000       0.31882000       0.03147000
O        2.85330000       3.05861000       6.00186000       1.32362000       1.29951000      -1.20843000
H        2.29591000       2.41100000       6.35786000      -1.31092000      -1.02528000       0.95071000
H        2.67307000       3.90724000       6.42496000      -0.24368000      -0.19909000       0.18518000
O        9.87870000       4.78443000      15.05004000      -0.16972000      -0.08799000      -0.38721000
H       10.14306000       4.08439000      15.63426000       0.37699000      -0.29865000       0.82326000
H        9.39510000       4.26728000      14.39824000      -0.16588000       0.31950000      -0.31272000
O        8.11377000      12.50787000       2.06308000      -1.23403000       0.99046000       0.55942000
H        8.81422000      11.94674000       1.78915000       0.93361000      -1.01750000      -0.03048000
H        7.87217000      12.27692000       2.97202000       0.32305000      -0.15786000      -0.50235000
O        1.31345000       9.46613000       5.60234000       0.96804000      -0.26597000       1.65097000
H        1.41469000       8.98891000       6.45962000      -0.61463000       0.01806000      -0.91052000
H        1.84637000      10.24126000       5.85384000      -0.36406000       0.14759000      -0.74162000
O       10.77622000      10.55934000       2.46379000       0.56115000       0.91615000      -0.06462000
H       11.16906000       9.74808000       2.10558000       0.17302000       0.19591000      -0.20620000
H       11.45577000      11.26852000       2.49029000      -0.70944000      -0.99885000      -0.06912000
O        8.81946000       1.61689000       1.03533000      -1.78750000       0.01803000       0.06543000
H        7.88903000       1.64653000       1.41244000       1.30405000       0.08711000      -0.41364000
H        8.66746000       1.76752000       0.08839000       0.27904000      -0.14908000       0.43894000
O        2.19034000      13.20072000       5.69641000       1.43710000      -0.49902000      -0.38817000
H        3.12144000      13.43750000       5.47859000      -1.15494000      -0.19683000       0.26522000
H        1.78059000      14.00152000       5.99766000      -0.24820000       0.55273000       0.17746000
O        1.75168000       8.17515000      11.96818000       2.24051000       1.27433000       0.71687000
H        2.64114000       8.55296000      12.25627000      -1.55161000      -0.20928000      -1.02936000
H        1.66303000       7.53908000      12.66719000      -0.67825000      -0.80789000       0.30481000
O        9.12379000       0.02101000       3.40715000       0.75079000      -0.29193000      -0.50345000
H        9.26449000       0.42382000       2.52772000      -0.02747000      -0.05327000       0.56898000
H        9.75328000       0.43130000       4.02141000      -0.69710000      -0.12141000      -0.56104000
O        1.49345000       8.12057000       9.14150000       0.41772000       1.07349000      -0.92290000
H        1.12042000       7.46574000       9.69698000      -0.71191000      -1.58331000       0.69651000
H        1.90728000       8.64563000       9.82630000       0.32578000       0.43252000      -0.02593000
O        2.22545000       0.68035000       8.66751000       0.72258000      -1.07809000      -1.26994000
H        1.40698000       0.31740000       8.28770000      -0.12537000       0.21107000       0.09958000
H        2.91147000       0.31809000       8.05589000      -0.75267000       0.52463000       0.79193000
O        8.29387000      10.57800000      10.02007000       0.30124000       0.95195000      -0.41928000
H        8.15829000       9.72581000      10.41888000       0.27938000      -0.41595000       0.20265000
H        9.23282000      10.72386000       9.81859000      -0.55811000      -0.44120000       0.33835000
O        2.23984000       2.56370000       0.36455000       0.20637000       0.84402000       1.10242000
H        3.16849000       2.45064000       0.19259000       0.41516000      -0.16546000      -0.33906000
H        1.72003000       2.22897000      -0.33328000      -0.60704000      -0.68093000      -1.35508000
115
Lattice="100.0 0.0 0.0 0.0 100.0 0.0 0.0 0.0 100.0" Properties=species:S:1:pos:R:3:forces:R:3 config_type=reactants_in_water energy=-76093.17639698 pbc="T T T"
C        4.91077000       7.54823000       7.60324000       0.14558000       0.68541000       0.19225000
C        4.31615000       6.57027000       8.58970000      -1.07226000       0.83720000       0.26578000
C        4.79767000       5.35845000       8.34711000       1.18093000       0.51099000      -0.95362000
H        3.64776000       6.84899000       9.42197000       0.42738000      -0.10535000      -0.68876000
C        5.75602000       5.43650000       7.22190000       0.08966000      -1.73223000       0.59559000
H        4.63210000       4.45207000       8.83922000      -0.42396000      -0.92553000       0.82882000
C        5.79100000       6.67343000       6.75908000      -0.49822000       0.44071000       0.08658000
H        6.36832000       4.54857000       6.95030000      -0.56332000       0.98403000      -0.03672000
H        6.33475000       7.01540000       5.92467000       0.63112000       0.48328000      -0.69885000
H        5.58962000       8.17277000       8.21336000      -0.07564000       0.09930000      -0.20509000
H        4.26906000       8.27503000       7.03914000       0.27713000      -0.90833000       0.55512000
C        4.48746000       3.28701000       3.03300000      -1.05478000       1.69397000      -0.81230000
C        3.22811000       2.96439000       3.27504000      -0.77636000      -0.53932000      -0.24597000
H        2.36105000       3.43349000       2.85974000      -0.06409000       0.73357000      -0.17691000
H        2.98137000       2.08419000       3.83466000       0.11865000      -0.12419000       0.28043000
C        5.50045000       2.44165000       3.59742000       0.43466000      -2.65527000       0.96964000
H        4.68501000       4.18532000       2.43251000       0.36700000      -0.51342000       0.32669000
O        5.12602000       1.37433000       4.12221000       1.30061000       1.14218000      -0.39375000
C        6.95144000       2.84392000       3.57825000      -0.37129000       0.99381000      -0.03374000
H        7.20349000       3.38543000       2.64970000      -0.04787000      -0.29596000       0.45176000
H        7.65626000       2.06963000       3.82779000      -0.02767000      -0.47028000      -0.33067000
H        7.03476000       3.56060000       4.40791000       0.10920000       0.23520000      -0.23364000
O        4.45303000       7.29911000       2.90183000      -0.90886000      -1.88891000       0.13332000
H        5.22848000       6.72621000       3.07191000      -0.70688000       0.43699000       0.01855000
H        3.67124000       6.66460000       2.98872000       1.41858000       1.32129000      -0.14445000
O        9.77709000       9.15113000       6.41939000       2.27727000      -1.19145000      -1.07503000
H        9.01465000       9.57829000       6.71732000      -1.86476000       0.53521000       0.80805000
H        9.70557000       8.18292000       6.49240000      -0.28226000       0.75214000       0.26648000
O        6.52661000       5.31935000      -3.31555000      -1.54858000       0.47285000      -0.18407000
H        7.19418000       4.72741000      -3.58275000       1.20599000      -1.02936000      -0.45695000
H        6.91062000       5.89266000      -2.67191000       0.43929000       0.51890000       0.57591000
O        7.88850000       1.01230000       5.91099000      -1.30948000      -0.39445000      -0.04399000
H        7.40345000       0.17035000       5.72822000       0.60750000       1.02223000       0.23112000
H        7.17177000       1.68148000       5.85805000       0.68867000      -0.72928000       0.11750000
O        3.01691000       3.10801000       9.62657000      -0.83941000      -0.74774000      -0.85655000
H        2.25522000       2.53882000       9.36192000       0.92485000       0.36969000       0.33416000
H        2.97265000       3.22391000      10.56809000      -0.05996000      -0.04010000       0.63663000
O       10.01558000       4.51886000       1.97070000       0.24710000       0.92759000      -1.73219000
H       10.10054000       5.17501000       1.22363000      -0.19112000      -1.15020000       1.23745000