22
Lattice="100.0 0.0 0.0 0.0 100.0 0.0 0.0 0.0 100.0" Properties=species:S:1:pos:R:3:forces:R:3 config_type=vacuum energy=-11581.28511599 pbc="T T T"
C       -0.10275000       1.85156000       1.57562000       0.18376000       1.32525000       0.55546000
C       -0.65765000       0.72255000       2.41042000      -0.48734000       0.57713000      -0.23477000
C        0.09665000      -0.33271000       2.14466000      -0.46400000      -2.85993000       0.49867000
H       -1.48516000       0.72600000       3.13151000       0.42360000       0.29017000      -0.61194000
C        1.13454000      -0.05006000       1.19138000       0.93536000       0.83790000      -0.62959000
H       -0.06505000      -1.36569000       2.52245000       0.04630000       0.97770000      -0.11370000
C        1.10090000       1.24977000       0.89320000      -0.95659000       0.58993000       0.49862000
H        1.84749000      -0.71286000       0.75175000       0.16675000      -0.57273000       0.22652000
H        1.74702000       1.88675000       0.32256000       0.25954000      -0.25672000      -0.42561000
H        0.19260000       2.70223000       2.23974000      -0.19085000      -0.45147000      -0.50081000
H       -0.75230000       2.28815000       0.78346000      -0.00018000      -0.37032000       0.68159000
C       -0.95137000      -0.16502000      -1.38893000      -0.27400000      -0.11196000      -0.26231000
C       -2.07150000      -0.32833000      -0.67976000       0.86536000       1.80144000      -0.01917000
H       -2.77628000       0.50930000      -0.69446000      -0.07785000      -0.62352000       0.09497000
H       -2.11621000      -1.07488000       0.08457000      -0.40545000      -0.61275000      -0.05085000
C        0.07530000      -1.27099000      -1.41120000      -0.15263000       0.95715000      -0.98162000
H       -0.82904000       0.73149000      -2.02412000       0.08427000      -0.76706000       0.29202000
O       -0.00040000      -2.21452000      -0.68048000      -0.18672000      -0.78187000       0.85545000
C        1.13450000      -1.24074000      -2.48440000       1.72199000      -0.95810000       1.16086000
H        2.13139000      -0.91627000      -2.10403000      -0.73053000      -0.08769000       0.37263000
H        0.96388000      -0.56069000      -3.26370000      -0.67258000       0.62331000      -1.30344000
H        1.32681000      -2.28454000      -2.79910000      -0.33919000       0.65648000      -0.19214000
118
Lattice="100.0 0.0 0.0 0.0 100.0 0.0 0.0 0.0 100.0" Properties=species:S:1:pos:R:3:forces:R:3 config_type=reactants_in_water energy=-78174.7296111 pbc="T T T"
C        5.24781000       7.27777000       6.49088000       1.06348000       0.45921000      -1.90091000
C        4.73738000       6.51894000       7.62570000       0.64312000      -0.65106000       0.85039000
C        5.66758000       5.60854000       7.99129000      -0.27289000      -0.65412000      -1.00356000
H        3.80648000       6.75493000       8.11392000      -0.14283000      -0.27779000       0.00126000
C        6.83171000       5.74229000       7.06336000       0.25873000      -0.41872000       0.88708000
H        5.51486000       4.77032000       8.68447000       0.20481000       0.69876000      -0.10415000
C        6.68376000       6.78825000       6.25281000      -1.54026000      -0.10964000       1.03950000
H        7.69578000       5.10279000       7.08015000       0.10613000      -0.01964000       0.26648000
H        7.45494000       7.25263000       5.67155000      -0.17492000      -0.15093000      -0.33885000
H        5.22940000       8.33095000       6.62755000      -0.23992000       1.10727000       0.15367000
H        4.69649000       7.07806000       5.54325000       0.12841000       0.12429000       0.62243000
C        4.08669000       4.66679000       4.43431000      -1.11229000       0.33759000      -0.33994000
C        2.94357000       4.57056000       5.09329000       0.77937000      -0.15475000       0.69312000
H        2.11400000       5.26476000       4.96335000       0.31886000      -0.13117000       0.54679000
H        2.99412000       3.80898000       5.87563000      -0.74726000       0.02390000      -0.30862000
C        5.11457000       3.61920000       4.48018000       0.20442000      -1.08552000      -0.08251000
H        4.24378000       5.48373000       3.75099000       0.22658000       0.03549000      -0.34259000
O        4.98408000       2.51454000       4.98814000      -0.72218000       1.11340000       0.49667000
C        6.35263000       3.95023000       3.78172000       0.71160000      -1.13354000      -1.43577000
H        6.82329000       4.72317000       4.31015000       0.77877000       1.26774000       0.63871000
H        6.22761000       4.24654000       2.72508000      -0.24139000       0.09181000       0.59523000
H        6.95452000       3.04653000       3.80301000       0.28360000       0.19619000       0.01229000
O        0.64274000       4.42755000       2.88934000      -1.29205000      -0.28620000      -0.71247000
H        1.45117000       4.37451000       3.37376000       0.96734000       0.18846000       0.39285000
H        0.40656000       5.34170000       2.74801000       0.14968000       0.25807000       0.44128000
O        0.88670000       6.37870000       6.59584000      -1.45037000      -0.56750000      -1.74893000
H        1.61964000       6.86637000       6.87771000       1.52237000       1.01460000       0.91616000
H        0.47673000       5.96184000       7.33514000      -0.32126000      -0.32487000       0.93389000
O        0.80267000       2.95201000       6.41613000       0.20853000      -0.41244000       0.60697000
H       -0.11830000       3.04168000       6.24103000      -1.19932000      -0.06898000       0.06550000
H        1.18368000       3.47782000       5.73134000       0.59398000       0.37457000      -0.53359000
O        8.18827000       3.24541000       8.11695000       2.69010000       0.04024000      -1.55743000
H        7.45109000       3.12802000       8.63221000      -2.91667000      -0.13413000       1.91568000
H        8.60825000       2.38293000       8.13996000       0.32871000      -0.01398000      -0.13250000
O        5.42366000       0.62030000       8.07834000      -1.26251000      -0.40088000       0.52786000
H        5.77292000       0.18726000       7.30871000       0.44157000      -0.01386000      -0.39880000
H        6.07262000       1.19418000       8.44811000       0.76104000       0.35361000       0.03584000
O        2.57653000       1.52222000       3.64607000      -1.28801000       0.45045000      -0.03821000
H        1.66362000       1.58162000       3.30749000       0.42391000       0.24650000       0.15657000
H        2.77711000       0.60196000       3.53000000       0.52375000      -0.63921000       0.03766000
O        6.63839000      11.05039000       6.45139000       2.11556000       0.57892000       0.32312000
H        6.65455000      10.67016000       5.59222000       0.03050000      -0.82764000      -1.12050000
H        5.75318000      11.07801000       6.71549000      -2.09906000      -0.09495000       0.80073000
O        6.37512000       0.77069000       3.39012000       1.64215000      -1.61370000       0.56807000
H        5.89880000       0.99839000       4.17463000      -0.51084000       0.52496000       0.74505000
H        5.86955000       1.12468000       2.70052000      -1.23891000       0.97402000      -1.61562000
O        2.60469000       9.95613000       2.59710000       1.30748000       0.89694000       0.09760000
H        2.62630000       9.04471000       2.32009000      -0.09143000      -0.55026000      -0.17402000
H        3.53742000      10.24506000       2.44134000      -1.03855000      -0.32168000       0.14557000
O        6.56165000       8.78867000       4.04805000       1.23551000      -0.54466000       0.15989000
H        7.38770000       8.24344000       3.92676000      -1.32798000       0.89165000      -0.13883000
H        6.52390000       9.38647000       3.30006000       0.06226000      -0.10706000      -0.55932000
O        3.45562000       9.38256000      10.68300000      -0.01990000       0.09343000      -1.41137000
H        3.05238000       8.94947000       9.90621000      -0.09453000      -0.21140000       0.74879000
H        3.97968000      10.02106000      10.17225000       0.16539000      -0.02850000       0.71933000
O        9.94019000       8.06651000       4.34488000      -0.37458000      -0.44612000      -1.88249000
H        9.72642000       8.87707000       4.77009000      -0.17411000       0.78948000       0.82234000
H       10.49839000       7.57743000       4.92728000       0.30308000      -0.38631000       0.93311000
O        8.67314000       6.46617000      10.07437000       0.12491000       0.26218000       0.90216000
H        8.40853000       6.80228000       9.23786000      -0.27125000       0.81603000      -1.36507000
H        8.64116000       5.53327000       9.91210000       0.15821000      -0.93977000       0.17314000
O        7.04739000       9.13307000       9.15006000       0.67503000       0.25523000       0.12581000
H        6.20520000       9.07731000       8.73038000      -0.89739000       0.08967000      -1.02161000
H        6.88151000       8.64433000       9.94810000       0.00544000      -0.37948000       0.61249000
O        3.80531000      10.22923000       7.73274000       0.18377000       1.60768000       1.77392000
H        3.55501000      11.03501000       8.26789000       0.41204000      -1.28947000      -0.79198000
H        3.25902000      10.32925000       6.97166000      -0.83000000      -0.15007000      -1.06989000
O        9.44250000       9.58393000       1.81139000       0.39313000      -0.70326000      -0.50091000
H        9.22779000      10.24805000       2.43796000      -0.62761000       1.16844000       0.65098000
H       10.14774000       9.13179000       2.27996000       0.08341000      -0.49751000      -0.03566000
O       10.60695000       7.84813000       7.13465000       0.85684000      -0.68460000      -0.31190000
H       11.48013000       7.38290000       7.12073000      -1.08133000       1.16632000       0.35978000
H       10.69314000       8.79577000       7.31849000       0.45207000      -0.49991000       0.10581000
O        6.65389000      -2.14239000      10.45814000       0.62265000       2.40020000       0.31944000
H        7.38275000      -2.17525000      11.07744000       0.09204000      -0.03089000       0.10416000
H        6.38264000      -3.01216000      10.33033000      -0.73745000      -2.29420000      -0.31778000
O        5.73153000      10.51914000       1.01480000       0.29820000      -0.46719000       2.38081000
H        5.24475000      11.29248000       0.83242000      -0.75201000       1.35162000      -0.53495000
H        5.84779000      10.05703000       0.21946000       0.25307000      -1.11192000      -1.60154000
O       -1.62012000       6.70998000       9.38114000       1.66525000      -0.66784000       0.89270000
H       -2.44847000       7.12859000       9.32883000      -1.64739000       0.88276000      -0.36541000
H       -1.47392000       6.64022000      10.34109000       0.12476000      -0.03970000      -0.59612000
O       10.70831000       1.39737000       0.44545000      -0.59677000       0.09658000       0.58437000
H       10.92211000       2.30863000       0.28163000       0.01682000       0.59238000      -0.05009000
H       11.20032000       0.91405000      -0.19715000       0.49426000      -0.57585000      -0.64914000
O        8.81513000      11.63148000       8.24646000       1.25326000      -0.67752000       2.45872000
H        8.26408000      11.50807000       7.51852000      -1.65161000      -0.05283000      -2.14515000
H        8.55464000      10.85831000       8.78834000       0.25751000       0.64486000      -0.11516000
O        2.05328000       0.81509000      10.42388000      -0.84468000      -0.17857000      -0.35120000
H        2.14510000       0.24320000       9.65517000      -0.07325000       0.14127000      -0.06637000
H        2.89398000       0.75071000      10.84508000       0.93178000      -0.00087000       0.51493000
O        0.76510000       2.13904000       1.46275000       1.60586000      -0.37224000      -0.10664000
H        0.07408000       2.77033000       1.54134000      -0.91944000       0.65968000       0.35325000
H        0.41518000       1.26288000       1.39958000      -0.65933000      -0.55586000      -0.25779000
O        6.44544000       6.95765000       0.86419000      -0.94125000      -0.72563000      -0.78493000
H        7.28820000       6.68269000       0.46551000      -0.25955000      -0.01502000       0.23444000
H        5.73584000       6.40983000       0.43557000       1.23439000       0.74786000       0.60923000
O       11.12820000       4.55346000       4.31506000      -1.33400000       1.08231000      -3.34927000
H       11.48474000       4.36127000       5.12060000       1.39973000      -0.89317000       3.46617000
H       11.82021000       4.35672000       3.68245000      -0.02454000      -0.08588000      -0.15425000
O        4.14849000       2.63600000       1.80267000      -0.51159000       0.00140000       0.59500000
H        3.28098000       2.56236000       2.29426000       1.25029000      -0.05121000      -0.84204000
H        4.05046000       3.09728000       0.96814000      -0.36501000       0.01431000       0.12469000
O        8.62931000       8.91619000      11.71863000       0.46510000       0.84430000       1.35930000
H        8.44108000       8.39005000      10.97044000       0.06140000      -1.13347000      -1.08515000
H        7.84927000       9.44023000      11.88638000      -0.18024000       0.23256000       0.02250000
O        2.10700000       6.29506000       0.67251000       1.08049000       0.20328000      -0.37294000
H        1.35927000       6.65452000       1.10119000      -1.11515000       1.11054000       0.68659000
H        1.81411000       5.40497000       0.55797000       0.06143000      -1.25236000      -0.24590000
O        9.48431000       6.19478000       1.13063000       0.09965000      -0.38897000      -0.89799000
H        9.42683000       6.43569000       2.03993000      -0.40548000       0.22454000       1.24807000
H       10.38928000       6.41891000       0.92066000       0.22410000       0.05558000      -0.35167000
O        0.97925000      10.05269000       5.15359000      -1.70499000       0.66406000       0.84924000
H        1.79192000       9.89758000       4.73691000       1.92870000      -0.57788000      -1.17493000
H        0.60290000      10.73876000       4.59283000      -0.15290000      -0.07617000       0.09760000
O       11.59306000       4.49999000      11.00594000       0.09179000      -0.10133000      -0.22409000
H       12.38159000       5.01096000      10.85221000       0.67539000       0.02629000      -0.55789000
H       11.22377000       5.03229000      11.69559000      -0.95543000       0.28404000       0.71088000
22
Lattice="100.0 0.0 0.0 0.0 100.0 0.0 0.0 0.0 100.0" Properties=species:S:1:pos:R:3:forces:R:3 config_type=vacuum energy=-11580.59345095 pbc="T T T"
C       -0.05261000       1.81093000       0.86675000      -2.63016000       0.37585000       0.94912000
C       -0.90184000       0.79822000       1.69188000       2.37013000       0.11549000       0.19667000
C        0.05222000      -0.15444000       2.12334000      -1.74447000      -0.06955000      -0.62859000
H       -1.86339000       0.99107000       2.11250000      -0.11172000       0.27945000       0.59923000
C        1.18761000      -0.08520000       1.29218000       0.07933000       0.26665000      -0.14430000
H       -0.22671000      -0.99990000       2.74115000       0.27141000       0.15650000       0.10486000
C        1.00822000       0.96915000       0.43389000       1.91774000      -1.18491000      -0.64666000
H        1.96852000      -0.82403000       1.19638000      -0.07383000       0.01012000       0.22337000
H        1.64035000       1.28438000      -0.36579000       0.65574000      -0.00832000      -0.18302000
H        0.34688000       2.61874000       1.48426000      -0.14261000      -0.02916000       0.26199000
H       -0.59852000       2.23787000       0.04243000      -0.17047000       0.46819000      -0.06241000
C       -0.68868000      -0.06379000      -0.94733000      -0.59049000      -0.06373000       0.11828000
C       -1.74958000      -0.05101000      -0.05806000       0.58500000      -0.10705000      -0.14496000
H       -2.35083000       0.83771000       0.02935000      -0.45925000      -0.22782000      -0.50930000
H       -2.15429000      -0.99154000       0.34007000       0.38861000       0.57595000      -0.17137000
C        0.04851000      -1.27581000      -1.16641000       0.16455000      -3.32564000       1.09759000
H       -0.46765000       0.74192000      -1.61433000      -0.09226000       0.43175000      -0.17414000
O       -0.10268000      -2.26903000      -0.42164000      -0.10800000       1.59027000      -0.69195000
C        1.02504000      -1.45122000      -2.30968000       0.46701000       0.98318000       0.89254000
H        1.80673000      -0.66580000      -2.20736000      -0.31707000      -0.54823000      -0.27088000
H        0.48981000      -1.28591000      -3.22199000      -0.18865000       0.14826000      -0.74291000
H        1.46174000      -2.45768000      -2.26616000      -0.16328000       0.49503000      -0.01681000
115
Lattice="100.0 0.0 0.0 0.0 100.0 0.0 0.0 0.0 100.0" Properties=species:S:1:pos:R:3:forces:R:3 config_type=reactants_in_water energy=-76093.38926917 pbc="T T T"
C        5.68098000       7.19220000       6.51000000       1.20619000      -0.03560000       0.43940000
C        4.71855000       6.26121000       7.18501000      -0.87576000      -1.84552000      -0.04021000
C        5.67802000       5.26036000       7.86398000       0.10187000       1.06442000       0.60430000
H        3.86123000       6.66996000       7.69344000       0.59241000      -0.09934000       0.28300000
C        6.80272000       5.12938000       7.15311000      -1.13289000       0.70660000       0.18294000
H        5.44118000       4.83610000       8.81756000      -0.11963000      -0.51989000       0.22404000
C        6.52901000       5.98708000       5.89417000       3.03444000       2.72591000       4.22480000
H        7.63878000       4.47788000       7.38638000      -0.06242000       0.14893000      -0.29245000
H        7.39772000       6.24287000       5.34381000       0.59460000       0.35827000      -0.39335000
H        6.23856000       7.79679000       7.25119000      -0.16605000      -0.29660000      -0.65130000
H        5.16334000       7.81608000       5.77609000       0.39821000      -0.03542000      -0.08314000
C        5.51357000       5.37052000       5.19530000      -5.94890000      -3.53043000      -4.35323000
C        4.15466000       5.37858000       6.01525000       2.01038000       1.06846000       0.61081000
H        3.34435000       5.87205000       5.49677000       0.29921000      -0.09878000      -0.12650000
H        3.80652000       4.44439000       6.39746000       0.15286000      -0.55009000      -0.26250000
C        5.86843000       3.94506000       4.69422000       0.69311000       1.34279000       0.15207000
H        5.22770000       6.06993000       4.39892000       0.72956000      -0.69452000      -0.58555000
O        5.39736000       2.93733000       5.16052000      -0.20683000       0.03845000      -0.16620000
C        7.02855000       3.92079000       3.72908000       1.24083000      -0.80073000      -1.21317000
H        7.79097000       4.72141000       3.89785000      -0.64072000      -0.77838000       0.30868000
H        6.73455000       4.15466000       2.68150000      -0.37487000      -0.06991000       0.79689000
H        7.50573000       2.89471000       3.71138000      -0.45360000       1.19092000       0.07566000
O        9.83142000       2.38132000       5.99235000       0.65392000       0.07759000       1.08686000
H        8.97588000       2.54092000       5.62277000      -0.64951000      -0.01761000      -0.52686000
H       10.39259000       2.02220000       5.31695000       0.02141000      -0.20424000      -0.61824000
O        6.01988000      10.58870000       5.86141000      -1.66388000       0.28297000       1.13928000
H        6.00997000      11.24935000       6.56540000      -1.07560000      -0.31284000       0.39773000
H        6.85171000      10.83760000       5.56677000       2.74608000       0.10000000      -1.65706000
O        3.48548000       5.83187000       2.97818000      -1.40924000       0.19766000      -1.61013000
H        3.85309000       5.31786000       3.66642000       0.44972000      -0.70064000       1.06132000
H        3.19661000       5.11931000       2.35827000       0.50296000       0.88258000       0.44167000
O        7.70472000       3.50888000       0.11827000       0.81442000      -0.72099000      -3.70762000
H        7.56201000       3.63018000       1.00576000      -0.19240000       0.52666000       3.15873000
H        8.60799000       3.78901000      -0.09795000      -0.50387000       0.11337000       0.46781000
O        1.11873000       4.30056000       0.93300000      -0.72501000      -2.10331000       0.84532000
H        0.20029000       4.18788000       0.65572000       0.41256000       0.25386000      -0.00020000
H        1.43499000       5.10560000       0.59970000       0.28846000       1.98269000      -0.80698000
O        9.26135000       1.51797000       9.56399000      -1.06736000       1.40226000       1.41335000
H        9.22101000       0.75340000       9.05184000      -0.42098000      -1.97312000      -1.38106000
H       10.13253000       1.82739000       9.43215000       1.39798000       0.72519000      -0.16354000
O        3.57460000       9.90232000       7.42784000       1.30923000       1.56709000       0.57177000
H        3.44822000       9.39396000       6.66146000      -0.35931000      -1.28288000      -1.64533000
H        2.84807000       9.72756000       7.99012000      -1.46234000      -0.11531000       0.53860000
O       10.40233000       5.16227000       0.34676000      -0.45291000      -0.93270000      -1.32269000
H       10.76413000       5.73571000       0.97529000       0.66654000       1.25446000       1.81340000
H       10.96796000       5.34042000      -0.40631000      -0.06637000      -0.15490000      -0.44877000
O        1.97866000       7.71774000       5.33622000       0.31586000       1.54201000      -0.08123000
H        2.15164000       7.67500000       4.40218000       0.14559000      -0.01553000      -0.77338000
H        1.83670000       6.81947000       5.56205000      -0.65601000      -1.07314000       0.77226000
O        4.19793000       3.91994000       1.31517000      -0.41846000      -0.24834000       1.55561000
H        3.93447000       4.03956000       0.42585000       0.10160000      -0.17876000      -1.38465000
H        5.11788000       3.68111000       1.39796000       0.14932000      -0.12999000      -0.62688000
O        4.62569000      10.30099000       9.77041000      -0.35434000       0.09262000       3.47717000
H        4.71642000      10.32105000       8.86457000       0.43391000       0.18137000      -3.32769000
H        5.35273000      10.78623000      10.15492000       0.13037000      -0.00826000       0.09715000
O        2.73645000       4.34304000       8.47505000       0.37234000      -1.56257000      -1.79408000
H        2.26026000       3.74005000       9.02821000      -0.66217000      -0.24261000       1.21408000
H        2.87413000       3.66026000       7.74816000      -0.01809000       1.63777000       0.88855000
O        8.00705000       9.15402000       3.20710000       0.63590000      -0.21157000      -0.27619000
H        7.38173000       8.83515000       3.84349000      -0.65765000      -0.63205000       0.46010000
H        7.97121000      10.09372000       3.32998000      -0.02950000       0.76107000      -0.10853000
O        9.41586000       7.15123000       6.01973000      -0.27573000      -1.04809000       0.26877000
H        9.48131000       7.73593000       5.29600000      -0.15670000       0.99437000      -1.56166000
H       10.01076000       7.55231000       6.62725000       0.55779000       0.33213000       1.17262000
O        5.48927000       0.86732000       0.58196000      -3.15875000       1.11134000       0.17459000
H        5.32537000       0.64641000      -0.32392000       0.26243000      -0.20491000      -0.55077000
H        6.34308000       0.67532000       0.83149000       2.94386000      -0.66628000       0.44653000
O        2.35616000       0.95964000       9.16912000      -0.77858000      -0.51571000      -2.39755000
H        2.98897000       0.85437000       9.83186000       1.47598000       0.14711000       2.24071000
H        2.80593000       0.41568000       8.49335000      -0.61132000       0.33157000      -0.12907000
O        7.40647000       6.34661000       1.42662000      -0.16407000      -1.12281000       1.51170000
H        7.51464000       6.94998000       0.73023000      -0.07965000       1.32575000      -1.50380000
H        8.30705000       6.09377000       1.62030000       0.24474000      -0.20449000       0.11136000
O        1.77776000       7.72528000       0.09123000      -1.51167000      -0.08800000      -0.72434000
H        1.37033000       8.39060000       0.64308000      -0.36888000       0.20028000       0.23930000
H        2.65776000       7.71729000       0.39047000       1.87196000      -0.14807000       0.57072000
O        0.44846000       6.58566000       7.44293000      -0.56561000       0.25234000      -0.79131000
H       -0.40027000       6.47716000       7.87170000      -0.07820000      -0.06293000       0.18512000
H        1.10572000       6.39332000       8.09204000       0.79092000      -0.30958000       0.70992000
O        9.14109000       1.24288000       2.37022000      -0.02708000      -0.91830000       0.17134000
H        9.79874000       1.63484000       1.80342000       0.21981000       0.30160000      -0.34776000
H        9.26781000       0.28196000       2.25518000      -0.16389000       0.67207000       0.13397000
O        2.12639000       1.39184000       3.51079000      -0.38417000      -0.93356000       0.39909000
H        2.79060000       1.91343000       3.10440000       1.25899000       0.58644000      -0.74600000
H        1.41087000       2.00550000       3.57992000      -0.77474000       0.50706000       0.11668000
O        1.03218000      10.08210000       3.20614000       2.73567000      -0.47705000      -1.87191000
H        0.28248000      10.22421000       3.70043000      -2.65907000       0.39533000       1.81059000
H        1.76066000      10.14221000       3.82678000       0.01548000      -0.03108000       0.11813000
O        8.63880000       5.28784000      10.42697000      -2.13178000       0.78773000       1.77739000
H        7.73102000       5.05887000      10.14874000       0.89772000       0.01217000      -0.05604000
H        9.22034000       5.10387000       9.73611000       1.14340000      -0.68717000      -1.90662000
O        5.63259000       1.57772000       8.59732000      -2.65652000      -3.15209000      -0.46514000
H        4.99844000       1.62722000       7.85020000       0.72925000      -0.00740000       0.69558000
H        6.12298000       2.33480000       8.55605000       2.02897000       3.11799000      -0.22179000
O       10.62255000      11.09479000       5.97356000      -2.44752000      -0.82468000       0.79543000
H       11.52659000      11.21045000       6.09775000       2.33745000       0.38593000       0.08017000
H       10.39185000      11.29017000       5.08209000       0.08139000       0.26039000      -0.94607000
O        0.83635000       1.90281000       6.52948000       0.01931000       0.49787000      -1.34166000
H        0.68134000       1.56789000       7.39189000      -0.23816000      -0.47909000       1.31561000
H       -0.01675000       1.88728000       6.07325000       0.37641000      -0.03170000       0.19053000
O        7.93330000       8.20955000       9.07485000      -0.79578000       0.29347000      -0.88937000
H        8.16458000       7.49192000       9.64310000       0.44895000      -0.74287000       0.74733000
H        8.49682000       8.94698000       9.25503000       0.54506000       0.38431000       0.37227000
O        3.11125000       7.81166000       9.08270000      -2.30688000      -2.09471000       1.33927000
H        3.64691000       8.53697000       8.91463000       1.93926000       1.84389000      -0.18299000
H        3.69142000       7.11521000       9.39032000       0.04411000       0.03136000       0.22095000
O       11.49655000       9.35865000       0.86895000      -0.68842000       1.04711000      -1.78182000
H       10.76841000       9.38520000       1.46094000      -0.86900000      -0.12010000       0.87281000
H       12.16555000       8.84416000       1.24232000       1.47370000      -1.15884000       1.08837000
O       -0.12104000       7.86599000      10.62815000      -1.24749000      -0.95382000      -2.09295000
H        0.18816000       8.13574000      11.44957000       1.05134000       0.73150000       2.14077000
H        0.62499000       7.82113000      10.03377000       0.46008000       0.14107000      -0.09947000
O        3.84063000       0.10077000       5.88150000      -0.64840000      -1.09059000       0.78627000
H        4.44537000       0.81359000       5.81090000       0.84684000       1.12447000      -0.42658000
H        2.97735000       0.50089000       5.99591000      -0.31792000       0.31831000      -0.48357000
118
Lattice="100.0 0.0 0.0 0.0 100.0 0.0 0.0 0.0 100.0" Properties=species:S:1:pos:R:3:forces:R:3 config_type=reactants_in_water energy=-78168.48932348 pbc="T T T"
C        5.68346000       7.18986000       6.64891000      -0.11207000      -0.11101000      -0.12683000