118
Lattice="100.0 0.0 0.0 0.0 100.0 0.0 0.0 0.0 100.0" Properties=species:S:1:pos:R:3:forces:R:3 config_type=reactants_in_water energy=-78177.41647487 pbc="T T T"
C        6.03837000       6.23352000       3.40399000       2.57172000       1.45094000       1.77674000
C        5.45084000       6.29099000       4.81028000       0.43222000       0.57394000       2.14782000
C        6.75708000       6.27457000       5.68788000      -0.66891000      -0.77632000      -4.02310000
H        4.72288000       7.08333000       5.14658000       0.71466000      -0.93570000      -0.76595000
C        7.69386000       5.61918000       4.97091000      -1.51637000       0.80131000       1.13303000
H        6.84410000       6.66373000       6.63881000       0.11475000       0.68222000       1.84746000
C        7.05490000       5.12296000       3.67321000      -0.58588000      -0.49711000       1.23308000
H        8.60803000       5.44614000       5.49081000       0.74687000      -0.59866000      -0.69187000
H        7.73191000       4.91581000       2.86185000       0.06607000      -0.41537000      -0.12303000
H        6.56078000       7.14060000       3.07086000      -0.35576000      -0.09025000       0.18808000
H        5.36508000       5.90873000       2.72181000      -2.29808000      -0.77572000      -2.26359000
C        5.97548000       3.99305000       4.15577000       1.45628000      -0.38813000      -0.41952000
C        4.95875000       4.84416000       4.95194000       1.07008000      -2.02362000       1.26143000
H        4.11025000       4.61273000       4.39748000      -2.21529000       0.31408000      -0.40075000
H        4.86459000       4.38170000       5.97737000      -0.05447000       1.06845000      -0.92040000
C        6.60175000       2.70898000       4.75404000       0.89103000       1.37087000      -0.58549000
H        5.47853000       3.57480000       3.26559000       0.22800000       0.29888000      -0.05057000
O        6.31864000       2.19556000       5.81111000      -0.75115000       0.01662000       0.19577000
C        7.79216000       2.15734000       3.98943000      -0.61487000       0.19079000      -0.90114000
H        7.73412000       2.14445000       2.87526000      -0.47372000      -0.20937000       0.82520000
H        7.96582000       1.18437000       4.42076000       0.59778000      -0.25309000      -0.21301000
H        8.60014000       2.85205000       4.15033000       0.55738000       0.09300000       0.53392000
O       10.24494000      11.44434000       1.69315000      -0.53805000      -1.86188000       1.38868000
H       10.24104000      10.57599000       2.21901000       0.09207000       1.91875000      -1.17789000
H        9.31917000      11.73449000       1.74993000       0.43104000       0.02616000      -0.07251000
O        4.45679000       7.38926000      10.14636000      -0.14402000      -0.56291000      -0.07672000
H        3.86292000       7.45060000       9.39443000       0.00348000       0.13163000      -0.07178000
H        4.35333000       8.19814000      10.64801000       0.29469000       0.29862000       0.15284000
O        1.51981000       3.00534000       1.99247000       0.90882000      -0.91571000       2.34433000
H        0.96323000       2.66957000       1.32691000      -1.05768000      -0.48853000      -1.46579000
H        1.38703000       2.34862000       2.73331000       0.41867000       1.33616000      -1.21417000
O        5.60495000       9.47056000      11.73726000      -0.39418000      -1.69377000       0.15303000
H        6.40947000       9.93052000      11.73462000       1.90754000       0.64759000      -0.06797000
H        4.95653000      10.13916000      11.67119000      -1.49389000       1.13721000       0.11522000
O        2.17783000       8.77713000       7.65743000       0.26468000      -0.10994000      -0.34074000
H        1.43703000       8.87215000       8.23341000      -0.70683000       0.32470000       0.79228000
H        2.16051000       7.83662000       7.41418000       0.30512000       0.11830000      -0.55979000
O        1.53977000       5.30406000       3.92750000       0.35043000      -0.11371000      -1.01980000
H        0.92686000       4.53306000       4.00820000       0.71399000       0.40743000      -0.40248000
H        1.96429000       5.19007000       3.04031000      -0.67776000       0.06678000       1.21085000
O        6.45583000       2.94966000       0.13611000      -1.55734000      -0.91537000      -0.78959000
H        6.97180000       3.54633000       0.63618000       1.11057000       1.11870000       0.71614000
H        5.61426000       3.42446000       0.00604000       0.42834000      -0.02735000       0.08379000
O        8.45312000      -1.68219000       5.52932000      -0.16169000      -0.82185000      -0.75079000
H        8.18512000      -2.45708000       4.97882000       0.17409000       1.13220000       0.73393000
H        7.67044000      -1.13768000       5.64218000      -0.14884000      -0.14300000      -0.10658000
O        1.36589000       2.96238000       6.97197000      -0.43779000      -0.97402000       1.22502000
H        1.12482000       2.01697000       7.12812000       0.01870000       0.50078000      -0.65818000
H        1.28911000       3.27828000       7.89285000       0.27754000       0.22913000      -0.67200000
O        3.02986000       9.13544000       3.36371000      -0.11314000      -0.70331000      -1.05056000
H        3.39853000       9.97722000       3.57841000       0.47022000       1.18446000       0.07610000
H        2.62856000       8.85854000       4.16900000      -0.31890000      -0.51097000       0.90775000
O        4.90140000      -0.90883000       6.68760000      -0.41175000       0.39749000      -0.21663000
H        5.51681000      -0.16701000       6.68027000      -0.04079000       0.10617000      -0.00586000
H        4.01794000      -0.50216000       6.65443000       0.54189000      -0.14573000       0.12231000
O        0.32474000      -0.05746000       6.83998000       0.27983000       0.36256000       0.22050000
H        0.94436000      -0.51344000       7.42961000      -0.08585000      -0.17933000      -0.19928000
H        0.73252000      -0.10195000       5.97063000       0.15831000      -0.08824000      -0.08053000
O       10.31208000      13.54990000       5.95441000      -0.10802000      -0.24295000       0.01712000
H       10.13232000      14.02497000       5.15251000      -0.73849000       0.35792000      -0.64531000
H       11.25554000      13.66417000       5.97869000       0.78916000      -0.20030000       0.54440000
O        0.05793000       3.11262000       4.29717000      -0.50649000      -0.43736000       1.47647000
H        0.38009000       2.18727000       4.37370000      -0.22392000       0.96948000       0.33233000
H       -0.05139000       3.43096000       5.23180000       0.24393000      -0.91475000      -0.99604000
O       10.33914000       4.92238000       3.12881000       0.09850000      -0.63095000      -0.80675000
H       10.35892000       5.07614000       4.06101000      -0.03521000       0.03770000       1.03841000
H       10.28351000       5.76714000       2.69710000      -0.07849000       0.56823000      -0.15535000
O        8.95301000       5.18671000      13.79688000      -1.23279000       0.86856000      -0.99024000
H        8.33262000       5.55548000      13.10144000       0.89964000      -0.47224000       1.09225000
H        9.51589000       4.57374000      13.33024000       0.16042000      -0.19174000      -0.23354000
O       10.29453000       4.28325000       6.21057000      -0.13295000       0.20039000       2.42116000
H        9.52591000       4.04676000       6.81995000       1.57886000       0.41622000      -1.21448000
H       11.01378000       4.59119000       6.83417000      -1.27666000      -0.60876000      -1.04545000
O        2.46943000       1.09147000       4.64910000       0.07964000       0.91613000       1.06736000
H        2.88136000       1.78512000       5.22943000      -0.45818000      -0.83580000      -0.92159000
H        3.08322000       0.89780000       3.94059000       0.33610000       0.05890000      -0.04260000
O        8.83165000      10.60676000       4.78527000      -3.30207000      -2.08030000       1.60685000
H        8.39112000      10.64585000       5.69386000       0.62953000      -0.26041000      -2.04226000
H        9.49591000      11.21627000       4.87727000       2.75616000       2.53148000       0.20917000
O        2.34358000       6.35119000       6.36197000      -0.27768000      -0.08036000       0.36048000
H        1.59899000       5.85929000       6.70916000      -0.07686000      -0.23621000       0.33431000
H        2.27185000       6.08744000       5.43222000       0.16986000       0.01801000      -0.58077000
O        9.99365000       1.41918000      20.64533000      -0.73331000       1.33788000       0.65586000
H        9.89918000       2.20740000      21.23301000       0.01367000      -0.97640000      -0.79724000
H       10.73973000       0.96291000      21.00563000       0.65945000      -0.51406000       0.27887000
O        6.91855000      10.51033000       2.51257000       2.43352000       0.08296000      -0.51952000
H        7.74009000      10.57511000       3.08703000      -1.60873000      -0.09626000      -0.16014000
H        7.34510000      10.41681000       1.62571000      -0.82228000       0.01716000       0.78544000
O        0.82992000      10.51413000       5.23406000       0.29683000       0.24740000       1.14860000
H        0.75519000       9.88579000       4.53268000      -0.08431000      -0.58230000      -0.70641000
H        1.27287000      10.03196000       5.96067000      -0.12113000       0.25652000      -0.35714000
O        5.57832000      12.20388000       0.55140000       0.17190000      -0.29535000       1.01455000
H        5.66107000      11.71523000       1.41101000      -0.25790000       0.47289000      -1.06612000
H        4.87506000      11.81050000       0.03439000      -0.07228000      -0.26964000       0.17777000
O        7.20211000       1.86870000      -2.58392000      -1.27778000       0.83552000       0.72282000
H        6.70557000       2.18222000      -3.35832000       0.27516000      -0.18300000       0.38426000
H        6.71052000       2.27586000      -1.81055000       1.01302000      -0.65801000      -0.95448000
O        3.07495000      12.48938000       3.32903000       0.02058000      -0.20726000       0.22372000
H        2.12656000      12.49380000       3.50524000       0.16199000      -0.04363000      -0.08901000
H        3.21508000      12.78751000       2.42861000      -0.11138000       0.08400000      -0.08317000
O        2.98914000      10.32938000      11.98838000      -1.52820000       0.54200000       0.99944000
H        2.40217000      10.64718000      12.72869000       1.12235000      -0.46102000      -1.12055000
H        2.34336000       9.95273000      11.37603000       0.06824000      -0.05593000      -0.08801000
O        9.30013000       4.94966000       0.52592000      -0.91402000       1.00234000      -1.33905000
H        9.47181000       4.53368000      -0.32375000      -0.10115000       0.05845000      -0.09464000
H        9.72609000       4.39933000       1.14050000       0.96023000      -1.16182000       1.57433000
O        0.63776000       8.66203000      10.94302000      -0.36243000       0.95115000      -1.24577000
H       -0.24452000       8.65444000      10.55815000       0.00496000       0.61671000      -0.46661000
H        0.51013000       7.96454000      11.54378000       0.52784000      -1.49843000       1.60249000
O        2.54056000      -2.01016000       7.67069000       0.11878000      -0.81455000      -2.58659000
H        2.78262000      -2.33944000       6.73047000      -0.67093000       0.74839000       2.41483000
H        3.28845000      -2.31305000       8.18544000       0.28281000       0.05517000       0.23685000
O        6.72446000       6.74952000      12.07916000       0.03199000      -1.07575000      -2.93890000
H        6.06367000       6.98823000      12.68914000      -1.14104000       0.66879000       1.29930000
H        6.17178000       6.63868000      11.23132000       1.24423000       0.38283000       1.67546000
O        4.82010000       5.29086000      -0.14520000      -0.63459000       0.39027000      -0.92073000
H        4.97894000       5.84975000       0.62069000      -0.14149000       0.29495000      -0.23387000
H        4.40909000       5.83042000      -0.85842000       0.52843000      -0.43030000       1.10462000
22
Lattice="100.0 0.0 0.0 0.0 100.0 0.0 0.0 0.0 100.0" Properties=species:S:1:pos:R:3:forces:R:3 config_type=vacuum energy=-11581.1579401 pbc="T T T"
C        0.27327000       2.29918000       1.26585000       1.36288000       0.79936000      -0.35206000
C       -0.49027000       1.33274000       2.07973000       2.78081000      -0.54664000      -0.64103000
C        0.22532000       0.20358000       2.21515000      -0.73770000       0.29043000      -1.67295000
H       -1.39926000       1.55624000       2.47138000      -2.42567000       0.55462000       1.28288000
C        1.39032000       0.30157000       1.27529000      -0.22443000      -1.91443000       2.10588000
H       -0.22304000      -0.68075000       2.63356000       0.50438000      -0.27786000       0.32553000
C        1.47007000       1.50062000       0.75776000      -0.96554000       1.07624000      -1.29514000
H        2.07973000      -0.51615000       1.14356000       0.08188000      -0.02836000      -0.10238000
H        2.14145000       1.75686000      -0.05743000      -0.02298000       0.43618000       0.48776000
H        0.72714000       3.06723000       1.91002000      -0.21796000       0.05193000       0.20650000
H       -0.28326000       2.88719000       0.54138000      -0.10807000      -0.25719000      -0.31914000
C       -1.26337000      -0.77870000      -1.63043000      -0.67274000       0.70880000      -0.84349000
C       -2.42072000      -0.75373000      -0.96614000       0.96606000       0.48391000      -1.38121000
H       -3.17159000      -0.02696000      -1.21309000      -0.25126000       0.09365000       0.04168000
H       -2.60840000      -1.50727000      -0.26124000      -0.27990000      -0.69961000       1.09895000
C       -0.19019000      -1.74373000      -1.27912000       0.01204000       0.53162000       0.98581000
H       -1.07681000      -0.07060000      -2.47612000      -0.08356000      -0.62594000       1.00109000
O       -0.30903000      -2.56641000      -0.40499000      -0.54969000      -0.62026000       0.16425000
C        1.14335000      -1.50059000      -1.85504000       0.55190000       0.12924000      -1.39473000
H        1.75965000      -1.02146000      -1.11303000       0.23271000      -0.04785000       0.34190000
H        1.07687000      -0.80955000      -2.68731000       0.17391000       0.05793000      -0.23827000
H        1.59227000      -2.42876000      -2.20289000       0.10686000       0.01584000       0.13512000
22
Lattice="100.0 0.0 0.0 0.0 100.0 0.0 0.0 0.0 100.0" Properties=species:S:1:pos:R:3:forces:R:3 config_type=vacuum energy=-11580.93984791 pbc="T T T"
C        0.74328000       1.89110000       1.36103000       0.83114000      -0.06996000       0.27756000
C       -0.51616000       1.92788000       2.13917000      -0.14819000      -2.45441000       0.58943000
C       -0.91242000       0.67396000       2.53421000       2.00630000       0.60548000      -1.76542000
H       -0.92536000       2.85193000       2.35136000      -1.20221000       1.50768000       0.59173000
C        0.13215000      -0.27099000       1.94986000      -0.71759000       0.43047000       1.17357000
H       -1.79984000       0.33760000       3.04183000       0.01286000       0.23055000       0.21821000
C        1.02525000       0.43396000       1.26375000       1.34201000      -0.57361000      -0.99780000
H        0.23532000      -1.32261000       2.18450000      -0.33420000       0.00334000      -0.24923000
H        1.89039000       0.01167000       0.69621000      -0.83930000       0.43667000       0.73228000
H        1.58917000       2.36282000       1.93945000      -0.77648000      -0.23631000      -0.52827000
H        0.65492000       2.41909000       0.40740000       0.09403000      -0.07620000       0.03496000
C       -0.25342000      -0.21995000      -1.62697000      -0.93702000       0.19332000       0.60836000
C       -1.42197000       0.17668000      -1.08955000       0.27067000      -0.38651000       0.03998000
H       -1.86048000       1.18336000      -1.24368000       0.59823000      -0.73349000       0.52238000
H       -1.93739000      -0.57700000      -0.44391000       0.02978000       0.76843000      -1.07306000
C        0.09066000      -1.65937000      -1.63717000      -1.32694000      -3.22458000       1.11684000
H        0.52061000       0.45572000      -1.96850000      -0.38077000       0.13268000      -0.57813000
O       -0.65730000      -2.57394000      -1.22713000       1.04006000       2.37052000      -0.74781000
C        1.47962000      -2.03102000      -2.07576000      -0.42450000       1.34196000      -0.15049000
H        1.98035000      -1.63293000      -1.18036000       0.84575000      -0.36175000      -0.50331000
H        1.71977000      -1.42174000      -2.95280000       0.42369000      -0.05063000       0.25754000
H        1.65473000      -3.08094000      -2.29308000      -0.15737000       0.08914000       0.34350000
22
Lattice="100.0 0.0 0.0 0.0 100.0 0.0 0.0 0.0 100.0" Properties=species:S:1:pos:R:3:forces:R:3 config_type=vacuum energy=-11581.62842744 pbc="T T T"
C       -0.04630000       1.82864000       0.88823000      -0.40108000       0.32644000      -0.30948000
C       -0.97076000       0.84366000       1.65934000      -0.38026000      -0.86260000      -3.00803000
C       -0.02043000      -0.18319000       2.11350000       1.24001000       0.38074000       0.88302000
H       -1.74420000       1.18100000       2.35029000       0.17581000       0.07722000      -0.39190000
C        1.04590000      -0.18553000       1.30420000       1.03366000      -0.36209000       1.26980000
H       -0.07581000      -0.75394000       3.02473000      -0.39152000      -0.27892000      -0.09736000
C        0.86771000       0.78867000       0.25271000      -2.49978000      -0.68116000      -1.11539000
H        1.95486000      -0.76246000       1.42503000      -0.34435000      -0.28661000      -0.04222000
H        1.67564000       1.08810000      -0.37082000       0.54730000       0.26619000      -0.30837000
H        0.51824000       2.50826000       1.52901000      -0.04017000      -0.08918000       0.12496000
H       -0.57528000       2.40104000       0.10225000       0.14002000      -0.08712000       0.61620000
C       -0.43504000      -0.02554000      -0.73537000       2.44727000       1.88663000       1.09431000
C       -1.54808000       0.04672000       0.23008000      -1.59873000       2.30752000       0.22273000
H       -2.39218000       0.60254000      -0.27395000       0.82429000      -0.14315000       0.86684000
H       -1.96292000      -0.88397000       0.46980000      -0.24323000      -1.42579000       0.54464000
C        0.14167000      -1.29351000      -1.15977000      -1.85143000      -2.56871000       1.52421000
H       -0.46828000       0.60971000      -1.60558000      -0.39099000       0.45955000      -0.09232000
O       -0.17314000      -2.35145000      -0.59579000       0.98822000       1.34375000      -0.85894000
C        0.93947000      -1.25179000      -2.38730000       2.23923000      -0.12218000      -0.98592000
H        1.61637000      -0.38622000      -2.45097000      -0.62379000       0.17223000       0.06215000
H        0.27378000      -1.23988000      -3.24278000      -0.17690000       0.05737000      -0.15874000
H        1.65383000      -2.07798000      -2.50867000      -0.66467000      -0.18389000       0.23349000
22
Lattice="100.0 0.0 0.0 0.0 100.0 0.0 0.0 0.0 100.0" Properties=species:S:1:pos:R:3:forces:R:3 config_type=vacuum energy=-11580.50706075 pbc="T T T"
C       -0.12027000       1.81047000       0.91412000       1.04000000       0.28650000      -0.24532000
C       -0.89206000       0.76843000       1.69938000      -1.29258000       2.59919000      -1.28884000
C       -0.02689000      -0.18187000       2.04033000       2.77046000      -2.06455000       0.69222000
H       -1.76680000       1.04541000       2.24610000      -0.39222000      -0.06481000       0.25136000
C        1.17559000      -0.06895000       1.27180000      -0.39232000      -2.63767000       1.55436000
H       -0.21927000      -0.99354000       2.71602000      -0.08031000      -0.14998000       0.14579000
C        1.02684000       0.90932000       0.39121000      -1.05061000       3.12887000      -1.03963000
H        1.94542000      -0.83676000       1.21403000      -0.20247000       0.24832000       0.27051000
H        1.75495000       1.27547000      -0.31275000       0.08249000      -0.05243000      -0.09193000
H        0.34274000       2.52730000       1.63299000      -0.23242000      -0.37501000      -0.38800000
H       -0.66613000       2.39513000       0.15352000       0.23679000      -0.42174000       0.43081000
C       -0.62685000      -0.08153000      -0.93939000      -1.77383000       2.28288000       0.33518000
C       -1.68513000       0.02915000      -0.02272000       0.45044000      -3.88874000       0.32414000
H       -2.47933000       0.70491000      -0.13198000      -0.58804000       1.16329000      -0.21485000
H       -2.04879000      -0.97349000       0.41156000       0.63264000       1.66602000      -0.71932000
C        0.05863000      -1.31659000      -1.15100000       0.82171000       1.64956000      -1.60612000
H       -0.53228000       0.73837000      -1.65008000       0.29232000      -0.35687000      -0.02408000
O       -0.08664000      -2.24385000      -0.43952000      -0.64282000      -3.05464000       2.48475000
C        1.01129000      -1.38389000      -2.28811000       1.20377000       1.75377000       0.08405000
H        1.72938000      -0.53146000      -2.27691000      -0.63747000      -0.32875000       0.03059000
H        0.49561000      -1.34496000      -3.20862000      -0.73165000       0.15447000      -1.11505000
H        1.60999000      -2.24709000      -2.27000000       0.52528000      -1.30658000       0.22575000
118
Lattice="100.0 0.0 0.0 0.0 100.0 0.0 0.0 0.0 100.0" Properties=species:S:1:pos:R:3:forces:R:3 config_type=reactants_in_water energy=-78174.43049093 pbc="T T T"
C        6.07449000       7.04678000       6.78975000      -0.72075000       0.95188000       0.03669000
C        5.35361000       5.98752000       7.59795000       1.56423000       1.36456000      -0.37381000
C        6.22573000       4.97425000       7.74526000      -1.05320000       0.37970000       0.90870000
H        4.41802000       6.25413000       8.03468000      -0.62516000      -0.62905000       0.08408000
C        7.54949000       5.33788000       7.21122000      -1.78328000      -0.78683000      -1.28876000
H        5.90136000       4.01173000       8.11009000       0.37798000       0.01230000       0.43397000
C        7.34842000       6.38264000       6.40373000       0.64942000       0.97386000       0.11157000
H        8.32824000       4.63319000       7.25253000       0.93590000      -0.24035000      -0.20468000
H        7.98703000       6.75917000       5.62082000       0.27557000       0.14542000       0.37277000
H        6.32043000       7.99195000       7.34184000      -0.18070000      -0.84906000       0.05236000
H        5.43931000       7.47361000       6.00336000       0.19733000      -0.28543000      -0.09140000
C        4.48776000       5.33122000       4.36020000      -1.45192000      -0.42763000       0.46370000
C        3.24127000       5.02105000       4.74660000       0.44741000       1.60865000      -0.76420000
H        2.71864000       5.77903000       5.31413000      -0.39710000      -0.21525000       0.05811000
H        2.69502000       4.20233000       4.30187000       0.27078000      -0.28798000       0.63314000
C        5.24368000       4.24176000       3.76562000       1.47001000       0.11965000      -0.70365000
H        4.90866000       6.31925000       4.51412000       0.26375000      -0.53857000       0.22633000
O        4.74868000       3.15460000       3.52921000      -0.29783000      -0.49551000      -0.09184000
C        6.69732000       4.52687000       3.48910000      -0.67008000       0.23508000       0.15456000
H        7.20389000       4.67222000       4.43264000       0.15523000      -0.08643000       0.34683000
H        6.74245000       5.49525000       3.00587000       0.12538000       0.12260000      -0.39665000
H        7.17042000       3.75674000       2.90637000       0.09687000      -0.22337000      -0.18481000
O        0.71602000       4.86980000       2.86779000       0.38594000      -1.97404000      -0.95158000
H        0.49612000       5.63908000       3.32186000      -0.48563000       2.16843000       0.91312000
H        0.79605000       5.07245000       1.92570000       0.08385000      -0.03069000       0.16603000
O        0.93111000       5.94648000       7.38097000      -0.31928000       2.07340000       0.84184000
H        0.13676000       6.34127000       7.01678000      -0.09390000       0.31928000      -0.04239000
H        0.90516000       5.10156000       7.00267000       0.30286000      -2.43418000      -0.98255000
O        0.69702000       3.32592000       5.37909000      -1.39364000       1.52855000      -0.99062000
H        0.40964000       3.52021000       4.44378000       0.71303000      -0.27433000       1.18671000
H        1.21563000       2.54795000       5.29965000       0.65080000      -1.15785000      -0.02350000
O        8.14533000       2.91322000       8.42194000      -1.06990000      -0.77490000      -0.55906000
H        7.23345000       2.73459000       8.70242000       0.02617000      -0.21785000      -1.05342000
H        8.51269000       2.98919000       9.26604000       1.72235000       0.32204000       1.91038000
O        6.16272000       1.21681000       7.63518000      -0.71669000       0.16424000       0.46094000
H        6.19566000       0.60951000       8.36977000      -0.21295000      -0.42347000       0.43312000
H        6.81837000       0.86145000       7.05701000       0.71047000      -0.12294000      -0.83959000
O        2.73797000       0.32629000       4.87561000      -1.37233000       1.18838000      -0.62333000
H        3.00039000       1.21402000       4.60782000      -0.20456000       0.21727000      -0.14555000
H        3.57316000      -0.01694000       5.08999000       1.74162000      -1.19181000       0.57783000
O        6.83496000      10.85221000       7.07819000       0.15344000      -1.49366000      -0.53775000
H        6.84297000      11.76308000       7.26778000       0.20979000       1.68436000       0.37514000
H        5.95146000      10.55555000       7.28451000      -0.06924000      -0.26266000       0.35714000
O        6.07479000       0.76429000       2.89891000      -1.28867000       2.02196000      -0.53553000
H        5.67761000       1.69887000       3.04320000       0.91791000      -1.76047000       0.24258000
H        5.72475000       0.61291000       2.00220000       0.36289000      -0.33263000       0.41978000
O        2.23144000       9.49926000       1.59402000      -1.08986000       0.25007000       0.92212000
H        2.07644000      10.04782000       2.38564000      -0.03809000      -0.37692000      -0.48121000
H        3.15219000       9.60503000       1.41407000       0.89402000       0.05097000      -0.62833000
O        6.46698000       9.43292000       4.03078000       0.00914000      -3.22048000      -0.88134000
H        7.12181000       8.77891000       4.37405000       0.28398000       1.26866000       0.73305000
H        6.07295000       8.67280000       3.50948000      -0.31525000       1.68940000      -0.01629000
O        3.07283000       9.74714000      11.71011000      -0.42818000       0.76598000       1.20025000
H        2.71957000       9.08357000      12.30353000       0.02147000      -0.15338000      -0.04592000
H        3.30708000       9.31000000      10.91527000       0.35399000      -0.81871000      -1.07863000
O        9.25893000       8.06556000       4.36947000       0.53582000       0.58817000       0.31020000
H        9.22780000       9.04416000       4.18097000       0.77903000      -1.66305000       1.02946000
H        9.91796000       7.82384000       5.09582000      -1.12623000       1.17405000      -1.08223000
O        9.47418000       6.85666000       9.81158000       1.02246000       0.98159000      -0.35948000
H        8.70845000       7.14526000       9.32231000      -0.56486000       0.03000000      -0.17558000
H        9.25077000       6.04169000      10.21952000      -0.45459000      -1.02886000       0.43932000
O        6.64826000       8.94501000       9.92384000       0.47133000      -2.41055000      -0.52439000
H        7.45361000       9.21738000       9.48398000       0.12376000       0.56846000       0.03158000
H        6.19100000       9.68676000      10.23000000      -0.83052000       1.83037000       0.42343000
O        4.12831000       9.83072000       7.70291000       1.56574000      -0.29412000       0.79136000
H        4.20312000      10.31523000       6.89851000      -0.66842000       0.43657000      -1.06307000
H        3.22702000       9.71343000       7.92793000      -1.27967000       0.05619000      -0.06543000
O        8.94419000       9.15813000       1.61690000       0.96317000      -1.17045000      -2.21157000
H        9.15563000       8.23172000       1.80304000       0.05395000       0.01476000      -0.22019000
H        8.57088000       9.44715000       2.40271000      -1.28912000       1.05700000       2.15789000