22
Lattice="100.0 0.0 0.0 0.0 100.0 0.0 0.0 0.0 100.0" Properties=species:S:1:pos:R:3:forces:R:3 config_type=vacuum energy=-11581.62842744 pbc="T T T"
C       -0.04630000       1.82864000       0.88823000      -0.40108000       0.32644000      -0.30948000
C       -0.97076000       0.84366000       1.65934000      -0.38026000      -0.86260000      -3.00803000
C       -0.02043000      -0.18319000       2.11350000       1.24001000       0.38074000       0.88302000
H       -1.74420000       1.18100000       2.35029000       0.17581000       0.07722000      -0.39190000
C        1.04590000      -0.18553000       1.30420000       1.03366000      -0.36209000       1.26980000
H       -0.07581000      -0.75394000       3.02473000      -0.39152000      -0.27892000      -0.09736000
C        0.86771000       0.78867000       0.25271000      -2.49978000      -0.68116000      -1.11539000
H        1.95486000      -0.76246000       1.42503000      -0.34435000      -0.28661000      -0.04222000
H        1.67564000       1.08810000      -0.37082000       0.54730000       0.26619000      -0.30837000
H        0.51824000       2.50826000       1.52901000      -0.04017000      -0.08918000       0.12496000
H       -0.57528000       2.40104000       0.10225000       0.14002000      -0.08712000       0.61620000
C       -0.43504000      -0.02554000      -0.73537000       2.44727000       1.88663000       1.09431000
C       -1.54808000       0.04672000       0.23008000      -1.59873000       2.30752000       0.22273000
H       -2.39218000       0.60254000      -0.27395000       0.82429000      -0.14315000       0.86684000
H       -1.96292000      -0.88397000       0.46980000      -0.24323000      -1.42579000       0.54464000
C        0.14167000      -1.29351000      -1.15977000      -1.85143000      -2.56871000       1.52421000
H       -0.46828000       0.60971000      -1.60558000      -0.39099000       0.45955000      -0.09232000
O       -0.17314000      -2.35145000      -0.59579000       0.98822000       1.34375000      -0.85894000
C        0.93947000      -1.25179000      -2.38730000       2.23923000      -0.12218000      -0.98592000
H        1.61637000      -0.38622000      -2.45097000      -0.62379000       0.17223000       0.06215000
H        0.27378000      -1.23988000      -3.24278000      -0.17690000       0.05737000      -0.15874000
H        1.65383000      -2.07798000      -2.50867000      -0.66467000      -0.18389000       0.23349000
22
Lattice="100.0 0.0 0.0 0.0 100.0 0.0 0.0 0.0 100.0" Properties=species:S:1:pos:R:3:forces:R:3 config_type=vacuum energy=-11580.39735682 pbc="T T T"
C       -0.14744000       1.72969000       0.82905000       0.66675000       1.23867000       1.39260000
C       -0.86541000       0.80849000       1.82011000       1.22920000      -0.07637000      -1.23575000
C        0.01084000      -0.23738000       2.06583000      -0.71819000       0.08364000       0.41409000
H       -1.75184000       1.05404000       2.38696000       0.07771000       0.03354000      -0.18031000
C        1.13802000      -0.13543000       1.23417000       1.07482000       0.41956000       1.09542000
H       -0.19510000      -1.08340000       2.71399000       0.08555000       0.28544000       0.03157000
C        1.04420000       0.94768000       0.42581000       0.07149000      -0.67155000      -0.97717000
H        2.07166000      -0.65308000       1.38137000      -0.24746000      -0.67084000      -0.26938000
H        1.87629000       1.23497000      -0.23112000      -0.76563000       0.29461000       0.25600000
H        0.44715000       2.47969000       1.37875000      -0.68357000       0.49216000       0.46652000
H       -0.75769000       2.23072000       0.08039000       0.27117000      -0.01138000       0.22011000
C       -0.70772000      -0.04239000      -0.93515000      -0.30616000      -0.48129000      -0.08241000
C       -1.71490000      -0.02155000      -0.00517000      -0.32758000      -1.41192000      -0.92906000
H       -2.47668000       0.69158000      -0.11957000      -0.68430000       1.19541000       0.17303000
H       -2.08462000      -0.92376000       0.48062000       0.52238000       0.05473000      -0.36757000
C        0.05506000      -1.22445000      -1.15995000       0.45285000      -3.65849000       0.85443000
H       -0.44180000       0.71967000      -1.63425000      -0.46572000       0.76127000      -0.09989000
O       -0.10078000      -2.25518000      -0.46124000       0.20617000       1.79640000      -1.00140000
C        1.05420000      -1.32040000      -2.32280000       0.12326000       0.30207000       0.91283000
H        1.68904000      -0.42846000      -2.38692000      -0.21371000      -0.07234000      -0.08634000
H        0.49555000      -1.42884000      -3.24556000      -0.04868000      -0.08301000      -0.21332000
H        1.70026000      -2.19223000      -2.14224000      -0.39239000       0.31602000      -0.18320000
22
Lattice="100.0 0.0 0.0 0.0 100.0 0.0 0.0 0.0 100.0" Properties=species:S:1:pos:R:3:forces:R:3 config_type=vacuum energy=-11580.90397358 pbc="T T T"
C       -0.24608000       1.77145000       1.00616000      -0.01884000       0.91970000       0.91620000
C       -0.97235000       0.57103000       1.56204000      -1.98276000      -0.45288000       0.40961000
C        0.11999000      -0.29448000       2.03832000      -0.53993000      -0.61341000      -0.79114000
H       -1.85444000       0.68250000       2.26086000       1.13717000       0.10142000      -0.81577000
C        1.20238000      -0.07541000       1.25984000       0.93106000       0.33586000      -0.86774000
H       -0.03142000      -1.13253000       2.69004000       0.03430000      -0.11043000       0.24357000
C        0.85086000       1.01078000       0.36638000       1.89810000      -0.40994000      -2.41073000
H        2.16056000      -0.64734000       1.09838000      -1.41151000       0.56944000       0.64619000
H        1.68949000       1.44981000      -0.29429000      -1.71375000      -0.50367000       1.01834000
H        0.17276000       2.35948000       1.85077000      -0.15223000      -0.17899000      -0.46000000
H       -0.87109000       2.41568000       0.38221000       0.35406000      -0.14356000       0.01167000
C       -0.58811000       0.01764000      -0.91217000       1.91215000       0.69022000      -0.85281000
C       -1.67516000       0.07760000      -0.00583000      -1.47551000      -0.33955000       2.88401000
H       -2.48439000       0.84077000      -0.10467000       0.99580000      -0.50137000      -0.36042000
H       -2.16858000      -0.88799000       0.20142000       0.46669000       0.36405000      -0.18569000
C        0.06789000      -1.27172000      -1.15986000       0.73692000      -1.64517000       1.54616000
H       -0.50253000       0.68986000      -1.75980000      -0.24664000       0.16429000       0.16321000
O        0.00195000      -2.19778000      -0.33466000      -0.42337000       1.15873000      -1.17927000
C        1.01945000      -1.40780000      -2.34900000      -0.98229000      -0.33215000       0.39273000
H        1.92255000      -0.87949000      -2.05288000       0.12692000       0.18993000      -0.32021000
H        0.51628000      -0.94761000      -3.20492000       0.48112000      -0.04216000      -0.10987000
H        1.26192000      -2.47670000      -2.53104000      -0.23680000       0.81328000       0.11882000
22
Lattice="100.0 0.0 0.0 0.0 100.0 0.0 0.0 0.0 100.0" Properties=species:S:1:pos:R:3:forces:R:3 config_type=vacuum energy=-11580.50706075 pbc="T T T"
C       -0.12027000       1.81047000       0.91412000       1.04000000       0.28650000      -0.24532000
C       -0.89206000       0.76843000       1.69938000      -1.29258000       2.59919000      -1.28884000
C       -0.02689000      -0.18187000       2.04033000       2.77046000      -2.06455000       0.69222000
H       -1.76680000       1.04541000       2.24610000      -0.39222000      -0.06481000       0.25136000
C        1.17559000      -0.06895000       1.27180000      -0.39232000      -2.63767000       1.55436000
H       -0.21927000      -0.99354000       2.71602000      -0.08031000      -0.14998000       0.14579000
C        1.02684000       0.90932000       0.39121000      -1.05061000       3.12887000      -1.03963000
H        1.94542000      -0.83676000       1.21403000      -0.20247000       0.24832000       0.27051000
H        1.75495000       1.27547000      -0.31275000       0.08249000      -0.05243000      -0.09193000
H        0.34274000       2.52730000       1.63299000      -0.23242000      -0.37501000      -0.38800000
H       -0.66613000       2.39513000       0.15352000       0.23679000      -0.42174000       0.43081000
C       -0.62685000      -0.08153000      -0.93939000      -1.77383000       2.28288000       0.33518000
C       -1.68513000       0.02915000      -0.02272000       0.45044000      -3.88874000       0.32414000
H       -2.47933000       0.70491000      -0.13198000      -0.58804000       1.16329000      -0.21485000
H       -2.04879000      -0.97349000       0.41156000       0.63264000       1.66602000      -0.71932000
C        0.05863000      -1.31659000      -1.15100000       0.82171000       1.64956000      -1.60612000
H       -0.53228000       0.73837000      -1.65008000       0.29232000      -0.35687000      -0.02408000
O       -0.08664000      -2.24385000      -0.43952000      -0.64282000      -3.05464000       2.48475000
C        1.01129000      -1.38389000      -2.28811000       1.20377000       1.75377000       0.08405000
H        1.72938000      -0.53146000      -2.27691000      -0.63747000      -0.32875000       0.03059000
H        0.49561000      -1.34496000      -3.20862000      -0.73165000       0.15447000      -1.11505000
H        1.60999000      -2.24709000      -2.27000000       0.52528000      -1.30658000       0.22575000
22
Lattice="100.0 0.0 0.0 0.0 100.0 0.0 0.0 0.0 100.0" Properties=species:S:1:pos:R:3:forces:R:3 config_type=vacuum energy=-11581.62842744 pbc="T T T"
C       -0.04630000       1.82864000       0.88823000      -0.40108000       0.32644000      -0.30948000
C       -0.97076000       0.84366000       1.65934000      -0.38026000      -0.86260000      -3.00803000
C       -0.02043000      -0.18319000       2.11350000       1.24001000       0.38074000       0.88302000
H       -1.74420000       1.18100000       2.35029000       0.17581000       0.07722000      -0.39190000
C        1.04590000      -0.18553000       1.30420000       1.03366000      -0.36209000       1.26980000
H       -0.07581000      -0.75394000       3.02473000      -0.39152000      -0.27892000      -0.09736000
C        0.86771000       0.78867000       0.25271000      -2.49978000      -0.68116000      -1.11539000
H        1.95486000      -0.76246000       1.42503000      -0.34435000      -0.28661000      -0.04222000
H        1.67564000       1.08810000      -0.37082000       0.54730000       0.26619000      -0.30837000
H        0.51824000       2.50826000       1.52901000      -0.04017000      -0.08918000       0.12496000
H       -0.57528000       2.40104000       0.10225000       0.14002000      -0.08712000       0.61620000
C       -0.43504000      -0.02554000      -0.73537000       2.44727000       1.88663000       1.09431000
C       -1.54808000       0.04672000       0.23008000      -1.59873000       2.30752000       0.22273000
H       -2.39218000       0.60254000      -0.27395000       0.82429000      -0.14315000       0.86684000
H       -1.96292000      -0.88397000       0.46980000      -0.24323000      -1.42579000       0.54464000
C        0.14167000      -1.29351000      -1.15977000      -1.85143000      -2.56871000       1.52421000
H       -0.46828000       0.60971000      -1.60558000      -0.39099000       0.45955000      -0.09232000
O       -0.17314000      -2.35145000      -0.59579000       0.98822000       1.34375000      -0.85894000
C        0.93947000      -1.25179000      -2.38730000       2.23923000      -0.12218000      -0.98592000
H        1.61637000      -0.38622000      -2.45097000      -0.62379000       0.17223000       0.06215000
H        0.27378000      -1.23988000      -3.24278000      -0.17690000       0.05737000      -0.15874000
H        1.65383000      -2.07798000      -2.50867000      -0.66467000      -0.18389000       0.23349000
22
Lattice="100.0 0.0 0.0 0.0 100.0 0.0 0.0 0.0 100.0" Properties=species:S:1:pos:R:3:forces:R:3 config_type=vacuum energy=-11582.02301199 pbc="T T T"
C        0.76291000       1.23482000       1.57151000      -1.18925000      -0.38977000      -1.96318000
C       -0.75233000       0.97298000       1.51176000       0.02561000      -0.44324000       0.02374000
C       -0.83834000      -0.42086000       2.06707000       0.46070000      -0.04985000      -0.65272000
H       -1.38292000       1.66863000       1.95672000      -0.99771000       1.30727000       0.90967000
C        0.25355000      -1.04750000       1.62175000      -0.18793000      -0.45538000      -0.23435000
H       -1.75914000      -0.87506000       2.39837000       0.10091000      -0.06817000       0.20698000
C        1.08695000      -0.08690000       0.84203000      -0.74837000       1.28268000      -0.08240000
H        0.33008000      -2.09866000       1.48098000       0.29745000      -0.73573000       0.35845000
H        2.14717000      -0.14887000       0.72776000       0.54348000      -0.99432000      -0.34426000
H        1.05599000       1.32017000       2.57433000       0.83612000      -0.02787000       1.27704000
H        1.17149000       2.01659000       0.93572000      -0.40408000       0.52645000       0.33650000
C        0.24202000       0.24650000      -0.50145000       2.34922000       0.07228000      -1.19252000
C       -1.05851000       0.79349000       0.01161000       0.91724000       2.22010000      -0.47124000
H       -1.08740000       1.82863000      -0.42971000      -0.91289000      -1.04336000       0.27011000
H       -1.85051000       0.13002000      -0.29447000      -0.52321000       0.25813000       0.35937000
C        0.05220000      -0.88966000      -1.46815000      -0.57508000      -0.24041000       0.29682000
H        0.79691000       1.03420000      -1.10911000      -0.40246000      -0.82895000       1.04568000
O       -0.89318000      -1.63558000      -1.34508000      -0.14848000      -0.21306000       0.09848000
C        0.97714000      -1.09060000      -2.61931000       0.05637000       0.06548000      -1.43403000
H        1.12067000      -0.18840000      -3.27739000      -0.13604000      -0.71770000       0.90649000
H        0.53546000      -1.88838000      -3.24064000       0.28791000       0.37679000       0.24664000
H        1.94704000      -1.43583000      -2.27427000       0.24306000       0.07361000       0.11733000
22
Lattice="100.0 0.0 0.0 0.0 100.0 0.0 0.0 0.0 100.0" Properties=species:S:1:pos:R:3:forces:R:3 config_type=vacuum energy=-11580.90397358 pbc="T T T"
C       -0.24608000       1.77145000       1.00616000      -0.01884000       0.91970000       0.91620000
C       -0.97235000       0.57103000       1.56204000      -1.98276000      -0.45288000       0.40961000
C        0.11999000      -0.29448000       2.03832000      -0.53993000      -0.61341000      -0.79114000
H       -1.85444000       0.68250000       2.26086000       1.13717000       0.10142000      -0.81577000
C        1.20238000      -0.07541000       1.25984000       0.93106000       0.33586000      -0.86774000
H       -0.03142000      -1.13253000       2.69004000       0.03430000      -0.11043000       0.24357000
C        0.85086000       1.01078000       0.36638000       1.89810000      -0.40994000      -2.41073000
H        2.16056000      -0.64734000       1.09838000      -1.41151000       0.56944000       0.64619000
H        1.68949000       1.44981000      -0.29429000      -1.71375000      -0.50367000       1.01834000
H        0.17276000       2.35948000       1.85077000      -0.15223000      -0.17899000      -0.46000000
H       -0.87109000       2.41568000       0.38221000       0.35406000      -0.14356000       0.01167000
C       -0.58811000       0.01764000      -0.91217000       1.91215000       0.69022000      -0.85281000
C       -1.67516000       0.07760000      -0.00583000      -1.47551000      -0.33955000       2.88401000
H       -2.48439000       0.84077000      -0.10467000       0.99580000      -0.50137000      -0.36042000
H       -2.16858000      -0.88799000       0.20142000       0.46669000       0.36405000      -0.18569000
C        0.06789000      -1.27172000      -1.15986000       0.73692000      -1.64517000       1.54616000
H       -0.50253000       0.68986000      -1.75980000      -0.24664000       0.16429000       0.16321000
O        0.00195000      -2.19778000      -0.33466000      -0.42337000       1.15873000      -1.17927000
C        1.01945000      -1.40780000      -2.34900000      -0.98229000      -0.33215000       0.39273000
H        1.92255000      -0.87949000      -2.05288000       0.12692000       0.18993000      -0.32021000
H        0.51628000      -0.94761000      -3.20492000       0.48112000      -0.04216000      -0.10987000
H        1.26192000      -2.47670000      -2.53104000      -0.23680000       0.81328000       0.11882000
22
Lattice="100.0 0.0 0.0 0.0 100.0 0.0 0.0 0.0 100.0" Properties=species:S:1:pos:R:3:forces:R:3 config_type=vacuum energy=-11580.61566369 pbc="T T T"
C       -0.15065000       1.85981000       0.90229000      -1.04633000       1.22133000       0.73837000
C       -1.05763000       0.70498000       1.48213000      -1.62501000       1.53244000       0.84681000
C       -0.02520000      -0.18896000       1.93000000       2.94252000      -0.40518000       1.86940000
H       -1.93848000       0.81357000       2.19162000       1.53940000       0.71059000      -0.48123000
C        1.07356000      -0.05600000       1.13042000       0.45334000      -2.37255000       4.09869000
H       -0.10862000      -0.58717000       2.95014000       0.35775000      -0.69661000      -0.90020000
C        0.82332000       0.88610000       0.12721000      -4.65530000       1.08833000      -2.24110000
H        2.02055000      -0.56051000       1.25506000      -0.12218000      -0.21185000       0.10955000
H        1.55341000       1.15198000      -0.61934000       0.20831000       0.57060000       0.33583000
H        0.28558000       2.39596000       1.75395000       0.48479000      -0.24895000      -0.28252000
H       -0.76591000       2.62534000       0.38336000       0.54992000      -0.63282000      -0.42775000
C       -0.46105000       0.13301000      -0.64663000       3.02271000      -3.42276000      -2.73734000
C       -1.59307000       0.07494000       0.25574000      -3.22604000       0.64841000      -1.22790000
H       -2.56034000       0.52749000      -0.12579000       1.38693000       0.62788000       0.10374000
H       -2.05301000      -0.86454000       0.43800000       0.61220000      -1.56109000       0.33662000
C        0.11431000      -1.43739000      -1.09510000       0.36864000       5.00511000      -0.26745000
H       -0.60198000       0.60314000      -1.58627000      -0.40072000       0.68669000      -0.78970000
O       -0.05459000      -2.38911000      -0.44296000      -1.04590000      -2.30459000       1.27732000
C        1.12662000      -1.34388000      -2.20344000      -0.46325000       0.33312000       0.24661000
H        1.86999000      -0.62514000      -1.86681000       0.20121000      -0.09544000      -0.09966000
H        0.68688000      -0.95204000      -3.10578000      -0.27589000       0.21226000      -0.34986000
H        1.55562000      -2.30526000      -2.37345000       0.45296000      -0.58244000      -0.21073000
