124
Lattice="100.0 0.0 0.0 0.0 100.0 0.0 0.0 0.0 100.0" Properties=species:S:1:pos:R:3:forces:R:3 config_type=reactants_in_water energy=-82337.12237592 pbc="T T T"
C        5.64629000       7.23775000       6.65136000       0.74193000       0.20319000       0.08621000
C        4.80922000       6.24456000       7.39897000      -0.90046000       0.75220000       0.47963000
C        5.63443000       5.21005000       7.80900000       0.37985000       0.67649000      -0.42233000
H        3.86224000       6.59050000       7.87352000       1.12516000      -0.95359000      -0.64649000
C        6.86762000       5.33025000       7.11069000       0.15022000       0.27894000       0.06765000
H        5.32288000       4.36785000       8.38780000       0.08836000      -0.39766000       0.26802000
C        6.84641000       6.43204000       6.26198000      -1.05029000      -1.04314000       0.83600000
H        7.67542000       4.62202000       7.24232000      -0.09045000      -0.10341000      -0.25362000
H        7.59321000       6.75358000       5.55421000      -0.05881000       0.02179000       0.26027000
H        5.97656000       7.99856000       7.36942000      -0.05048000       0.01423000      -0.18487000
H        5.17854000       7.71341000       5.80956000      -0.11895000       0.43285000       0.06665000
C        4.97258000       5.38400000       4.87023000       0.52358000      -0.44822000      -0.99755000
C        3.90254000       5.51048000       5.73024000      -0.30596000      -0.64586000      -0.48751000
H        3.16255000       6.33006000       5.53328000       0.84430000      -0.89733000       0.54477000
H        3.52417000       4.57871000       6.18642000       0.01333000       0.81088000      -0.21823000
C        5.76162000       4.12742000       4.71137000       0.09714000       1.49010000      -0.04383000
H        5.16864000       6.14115000       4.07789000      -0.22581000      -0.72347000       0.85953000
O        5.77449000       3.16558000       5.46964000      -0.10157000       0.56489000      -0.41630000
C        6.62846000       4.17763000       3.45301000       0.15995000      -0.24541000       0.13138000
H        7.51224000       4.83743000       3.47850000      -0.42714000      -0.23714000       0.60198000
H        6.03763000       4.53911000       2.61016000      -0.22524000      -0.19585000       0.16033000
H        7.00237000       3.17419000       3.24916000      -0.11395000       0.05942000      -0.13493000
O        3.17887000       5.39372000       2.72048000       0.16030000       0.93763000      -0.94287000
H        2.65727000       5.88511000       3.32977000      -0.54449000       0.70708000       0.53200000
H        3.49661000       4.66417000       3.22867000       0.03417000      -0.85836000       0.10036000
O        1.22004000       7.97123000       7.20626000       0.04372000       0.13715000       0.39603000
H        1.64663000       8.15338000       6.37919000       0.47493000       0.12626000      -0.61101000
H        0.31893000       7.78699000       6.94619000      -0.37994000      -0.17023000       0.14996000
O        7.85688000       4.07097000       0.90706000      -0.13205000      -0.50341000      -1.59698000
H        8.41741000       3.50431000       1.42136000       0.57804000      -0.59310000       0.62695000
H        7.62733000       4.76323000       1.49791000      -0.36303000       0.86391000       0.84093000
O        6.78301000       1.33466000       7.83954000       1.55796000       0.42099000      -0.34921000
H        6.68787000       1.47554000       6.87959000       0.12339000       0.01330000       0.56318000
H        7.70959000       1.61686000       8.07311000      -1.40633000      -0.69600000      -0.24316000
O        2.68121000       8.27972000       2.18564000      -0.16023000      -0.88075000       0.56243000
H        3.17011000       8.89553000       1.68054000       1.20777000       0.68267000      -1.06052000
H        1.97779000       8.83600000       2.46833000      -1.16790000       0.56998000       0.67494000
O        6.34844000       5.54488000      11.03670000       1.09651000      -0.38750000       1.28023000
H        6.32028000       6.48735000      11.10693000       0.13286000       0.87427000       0.06965000
H        5.71042000       5.33055000      10.39878000      -1.28895000      -0.53562000      -1.43630000
O        3.27786000       3.23482000       1.62835000       0.43846000      -1.80536000       1.74105000
H        3.53673000       3.44570000       0.75857000       0.31722000       0.32940000      -1.57537000
H        3.35808000       2.26267000       1.70267000      -0.67947000       0.85723000      -0.50888000
O        4.57987000       0.99777000       4.26338000       2.51258000      -0.18119000      -0.95095000
H        5.48687000       1.02846000       3.81433000      -1.72364000       0.39037000       0.73967000
H        4.68633000       0.17157000       4.71834000      -0.26221000      -0.76243000       0.68748000
O        9.78197000       3.12329000       3.42519000      -1.77697000      -0.72076000      -0.16803000
H        9.70333000       3.69095000       4.17481000      -0.02609000       0.86134000       0.61476000
H       10.67152000       3.15124000       3.15286000       1.59601000       0.18748000      -0.76198000
O        1.81307000       4.22248000       8.41624000      -0.65190000      -0.74215000      -0.04204000
H        1.35488000       3.40332000       8.72115000       0.45047000       0.97750000      -0.15035000
H        2.70450000       4.09687000       8.74856000       0.23184000      -0.14178000      -0.03002000
O        2.21545000       1.43532000       5.15917000      -0.39940000      -0.06272000       0.27791000
H        2.54792000       2.06473000       5.80938000       0.21458000      -0.20051000      -0.14349000
H        2.97980000       1.11683000       4.64868000      -0.27034000       0.62693000       0.34753000
O       10.60841000       4.04309000       0.56519000       0.44808000      -1.03065000       0.28047000
H        9.74032000       4.31244000       0.30885000      -1.04950000       0.23174000      -0.27779000
H       11.12633000       4.82549000       0.51656000       0.76964000       0.90922000      -0.01763000
O        0.74352000       2.21736000       3.02759000       0.04069000       0.07969000       0.69795000
H        1.23875000       2.20748000       3.88723000      -0.60947000      -0.20588000      -0.84385000
H        1.07825000       1.43974000       2.58179000       0.16355000      -0.04129000       0.04732000
O        9.39968000       8.77824000       5.98234000      -0.43649000       0.87532000       0.71253000
H        9.16919000       7.86310000       5.92599000       0.02216000      -0.85491000      -0.04779000
H        9.99959000       8.89842000       5.26504000       0.67369000       0.08312000      -0.71276000
O       -0.03784000       6.67436000       1.18810000       0.35199000       0.57891000       1.37900000
H        0.54795000       7.16074000       1.81680000      -0.58075000      -0.89426000      -0.85549000
H        0.25124000       6.98513000       0.33925000       0.25280000       0.13770000      -0.62400000
O        5.61078000       0.85705000       1.89305000      -0.33941000       0.28420000       0.05910000
H        5.87148000       1.61644000       1.38232000       0.70626000       0.37892000      -0.64095000
H        4.80437000       1.22109000       2.28967000       0.00891000      -0.62697000      -0.12125000
O        9.58989000       7.49754000      10.13948000       0.47180000       1.34118000      -0.27590000
H       10.07521000       8.17086000      10.66475000      -0.45060000      -0.82823000      -0.32857000
H        9.41521000       7.98971000       9.31041000       0.03785000      -0.49179000       0.53257000
O        4.58446000       2.11182000       8.93628000      -0.05306000       0.88366000       0.54646000
H        5.50146000       1.82845000       8.74388000       0.11147000       0.14980000      -0.30053000
H        4.10173000       1.30255000       8.91779000      -0.66117000      -0.77597000      -0.01078000
O        3.50709000       8.37250000       9.37395000       0.21184000       0.91993000      -1.89358000
H        3.53789000       8.88276000       8.50720000      -0.05800000      -0.70010000       1.73456000
H        3.25249000       7.51275000       9.01775000      -0.34470000       0.11058000       0.66461000
O        7.41093000       6.84329000       1.07769000       0.91625000      -1.00867000      -1.20102000
H        6.64482000       7.30763000       0.77222000      -0.70698000       0.32966000      -0.30228000
H        7.73058000       6.29515000       0.31325000      -0.48823000       0.79372000       0.94325000
O        9.01845000       1.18950000       9.82094000       1.03405000       1.42232000      -1.33365000
H        9.03571000       1.94141000      10.44089000      -0.17164000      -0.18846000      -0.13196000
H        9.49883000       1.60214000       9.04429000      -0.63147000      -0.77922000       1.15561000
O        8.80131000       4.09027000      10.81178000      -0.14487000      -1.26294000       0.33048000
H        9.09960000       4.83348000      10.32132000       0.65587000       1.02986000      -0.61668000
H        7.90516000       4.34745000      11.02950000      -0.49181000       0.14642000       0.21202000
O        8.34530000       1.28843000       5.28901000      -0.58667000       1.02559000       0.02633000
H        8.34451000       0.64142000       4.58917000       0.17517000      -0.24249000      -0.37124000
H        7.89601000       2.06717000       4.90237000       0.08880000      -0.63990000       0.18905000
O        1.55477000       2.76011000      10.73126000       1.83665000      -0.02740000       0.23544000
H        2.53172000       2.80452000      10.90918000      -1.20434000      -0.00653000      -0.55686000
H        1.26253000       2.23162000      11.46513000      -0.54604000      -0.38202000       0.38364000
O        0.80199000       6.69655000      10.32335000      -0.27498000       1.18201000       0.43451000
H        0.85376000       6.00744000       9.68256000       0.22805000      -1.00356000      -0.87315000
H        1.34180000       6.42107000      11.05597000       0.24768000      -0.27143000       0.33805000
O        9.12247000       6.80635000       3.07813000       3.24972000       0.00485000      -0.22807000
H        8.40044000       6.75510000       3.62903000      -2.33826000      -0.28806000       2.17766000
H        8.73412000       7.01656000       2.25819000      -0.60680000       0.42967000      -1.69388000
O        6.71511000       9.62342000       4.47016000       1.75232000      -0.70544000      -0.40668000
H        5.92007000       9.96256000       4.07419000      -0.15416000       0.15252000      -0.53870000
H        7.42408000       9.42208000       3.80219000      -1.49725000       0.52586000       0.86894000
O        2.01195000       0.97003000       0.46144000      -1.29322000      -0.52288000      -0.32011000
H        2.04545000       0.69355000      -0.46748000       0.21563000       0.06750000       0.37286000
H        1.05206000       0.88151000       0.66630000       1.03005000       0.34084000      -0.14370000
O        5.01843000      10.11078000       6.67917000      -0.91286000      -0.37799000      -0.39440000
H        4.10175000      10.33827000       6.84012000      -0.28115000       0.22183000      -0.03670000
H        5.47294000      10.59476000       7.34930000       0.74517000       0.62462000       0.62767000
O        4.26995000      11.09712000      10.13464000      -1.57621000       1.08840000       0.22472000
H        3.33787000      10.80025000      10.25537000       0.69794000       0.47161000      -0.09502000
H        4.68504000      10.31690000       9.83766000       0.86500000      -1.47734000      -0.23616000
O       10.03527000       9.58584000       1.00084000       0.65413000      -0.01619000       0.79905000
H        9.09194000       9.57351000       0.90754000      -0.72877000      -0.01943000      -0.17444000
H       10.16727000       9.58370000       1.96575000       0.03902000      -0.06876000      -0.59804000
O        9.96243000       5.95197000       5.75941000       0.72757000      -0.40867000      -0.55713000
H       10.89107000       5.66113000       5.71876000      -0.54644000       0.35006000      -0.14920000
H        9.72209000       5.79221000       6.66349000      -0.30997000      -0.27334000       0.82035000
O        9.98430000       2.76266000       7.06803000      -2.26969000       0.43679000      -0.57043000
H        9.57805000       2.70838000       6.16851000       0.62777000      -0.48897000       1.14721000
H       10.90799000       2.77917000       6.95908000       1.70584000      -0.10037000      -0.28792000
O        1.06166000      10.18904000      10.23854000      -0.34918000      -0.55683000      -0.47824000
H        0.24260000      10.18940000       9.71334000       0.51752000       0.18462000       0.28978000
H        1.28240000       9.24052000      10.26353000       0.08881000       0.26538000      -0.03611000
118
Lattice="100.0 0.0 0.0 0.0 100.0 0.0 0.0 0.0 100.0" Properties=species:S:1:pos:R:3:forces:R:3 config_type=reactants_in_water energy=-78174.85337858 pbc="T T T"
C        5.74654000       7.23332000       6.62122000      -2.30224000      -1.91381000      -0.76926000
C        4.89554000       6.13410000       7.31723000      -0.08688000       0.89935000      -0.19063000
C        5.73599000       5.11061000       7.69224000       1.65085000      -0.68951000      -0.19774000
H        4.04861000       6.39392000       7.90802000      -0.40693000       0.19165000       0.35766000
C        6.91213000       5.22191000       6.91814000      -0.01044000       0.89730000       0.80508000
H        5.49183000       4.24962000       8.29024000      -0.13858000       0.18113000       0.15251000
C        6.87358000       6.38774000       6.18090000      -0.40527000      -0.55156000      -0.54971000
H        7.73204000       4.54270000       6.86292000       0.18731000      -0.56896000      -0.04881000
H        7.60939000       6.70513000       5.47192000       0.34213000       0.07259000      -0.17634000
H        6.01934000       7.90427000       7.37467000       0.63045000       1.25128000       1.11758000
H        5.12068000       7.74560000       5.87025000       0.83921000      -0.05254000       0.18730000
C        5.10769000       5.30205000       4.81988000      -0.42783000       0.77590000      -0.63623000
C        4.07620000       5.33258000       5.76622000       0.79806000      -0.08659000      -0.38680000
H        3.29380000       6.07391000       5.73744000       0.34466000      -0.28808000      -0.30101000
H        3.83274000       4.34693000       6.13625000      -0.31752000       0.07488000       0.20663000
C        5.83176000       4.04647000       4.61279000       0.42757000       0.89917000      -1.44309000
H        5.27510000       6.14021000       4.11977000      -0.08859000      -0.69044000       0.42755000
O        5.58290000       3.03313000       5.22498000      -0.26703000      -0.81111000       1.07899000
C        6.87586000       4.05027000       3.51086000      -1.03412000       0.41933000      -0.46177000
H        7.68358000       4.73450000       3.79504000      -0.10689000      -0.26501000      -0.33258000
H        6.30545000       4.44947000       2.61915000       0.96210000      -0.40921000       0.76649000
H        7.21238000       3.02887000       3.29166000      -0.31738000       0.71968000       0.00152000
O        5.30965000       6.85839000      10.17542000      -0.53588000      -0.19032000       0.87109000
H        5.64200000       7.25138000      10.98642000       0.11409000       0.20001000      -0.19845000
H        5.94216000       7.01668000       9.48589000       0.48603000       0.23409000      -0.44584000
O        4.67472000       3.62249000       1.15416000       0.26251000       0.57043000      -1.20194000
H        4.54153000       4.16823000       0.34439000       0.25651000      -0.46861000       0.94371000
H        5.32025000       2.94355000       0.92982000       0.06714000      -0.14562000      -0.03583000
O        2.70040000       1.75252000       0.39444000       0.66885000       1.81301000      -1.01866000
H        2.11116000       1.55989000       1.09617000      -0.81115000      -0.34520000       1.10976000
H        2.84961000       2.73878000       0.50147000       0.09090000      -1.85440000       0.12098000
O        3.49252000       1.81440000       9.66394000       0.39762000      -0.31493000      -0.16878000
H        3.72651000       1.59976000       8.73526000      -0.70836000       0.21226000       0.60561000
H        2.79598000       1.25097000       9.99633000      -0.20986000      -0.24315000      -0.41941000
O        2.90624000       1.82672000       4.61859000      -0.46740000       1.23874000       0.29663000
H        3.50461000       2.53583000       4.26786000      -0.68079000      -0.87910000       0.81205000
H        2.36255000       2.23373000       5.34171000       1.10878000      -0.35437000      -1.07666000
O        4.08137000       6.32801000       0.55813000      -0.47938000       0.11425000       1.20825000
H        5.00234000       6.37130000       0.83838000       0.10202000       0.05491000      -0.16877000
H        3.64161000       6.17315000       1.42842000       0.20239000      -0.16412000      -0.90671000
O        1.71214000       9.10601000       2.93412000      -1.08669000      -0.62976000       0.92353000
H        1.18434000       8.40353000       3.42470000       1.42104000       1.08999000      -0.79539000
H        1.96292000       9.73800000       3.62147000      -0.02719000      -0.25378000      -0.15217000
O        9.04794000       1.87504000       9.08321000      -1.15013000      -1.07852000       0.76068000
H        9.22332000       2.81087000       9.03696000       0.03527000       0.50296000       0.30046000
H        8.30438000       1.70853000       9.72554000       1.06098000       0.51634000      -1.23714000
O        1.04582000       7.52606000       0.69875000      -0.32536000       0.15417000       0.28070000
H        0.37859000       7.93098000       1.28329000       0.75793000      -0.17337000      -0.36370000
H        1.90528000       7.90821000       0.94085000      -0.43313000      -0.12163000      -0.00015000
O        7.43457000       0.19627000       6.56350000       0.45228000      -2.12823000      -0.48738000
H        7.02460000       1.00695000       6.75816000      -0.92394000       1.73289000       0.30530000
H        8.16274000       0.11061000       7.17676000       0.14300000       0.13265000       0.26794000
O        9.72166000       5.42443000       2.36454000      -0.78441000       0.07249000      -0.59538000
H        9.39691000       4.90439000       1.61353000      -0.00053000       0.15055000       0.42264000
H       10.54400000       5.01329000       2.59427000       0.59729000      -0.39289000       0.27586000
O        3.76445000       9.90022000       9.57037000      -0.43526000      -0.22080000       0.86054000
H        3.38656000      10.75156000       9.77107000      -0.05801000       0.46845000       0.27989000
H        3.77988000       9.89862000       8.62643000       0.50955000      -0.15492000      -1.18329000
O        3.35930000       4.47765000       9.63851000      -0.10469000      -0.21078000       0.74688000
H        2.88956000       4.33505000       8.81645000      -0.21354000      -0.17060000      -0.22860000
H        3.31149000       3.61250000      10.09945000       0.09596000       0.80674000      -0.72005000
O        2.37796000       4.26246000       2.20282000      -1.98750000       1.15878000      -1.41448000
H        1.72667000       4.60939000       1.51549000       1.31711000      -0.49944000       1.14398000
H        1.78825000       4.12113000       2.94826000       0.10124000      -0.14544000       0.31467000
O        8.23887000       7.89687000       8.78996000      -0.11952000       0.81074000       0.84567000
H        8.32571000       8.76199000       9.23327000      -0.00565000      -0.06850000      -0.44771000
H        8.27619000       7.35139000       9.56966000      -0.01174000      -0.84425000       0.20665000
O        0.82168000       5.72226000       9.84968000      -0.11431000       0.97845000       0.51171000
H        1.70479000       6.06131000      10.12360000      -0.75060000      -0.56354000      -0.26279000
H        0.14343000       6.31022000      10.24654000       0.83807000      -0.44649000      -0.42458000
O        1.84359000      10.78595000       0.40649000      -0.62411000      -0.58027000      -0.73338000
H        2.04955000      10.68898000       1.32158000       0.44454000       0.21758000       1.09195000
H        1.26006000      10.01572000       0.31524000       0.14529000       0.27023000      -0.47202000
O        6.11825000       1.07872000       2.03693000       1.45612000       0.79500000      -0.58982000
H        6.46030000       0.19701000       1.95691000       0.14386000      -0.48622000      -0.09257000
H        5.21339000       1.00053000       2.23972000      -1.82470000      -0.22023000       0.42510000
O        9.20446000       9.65333000       7.05151000       1.29512000       0.60274000      -0.42864000
H        8.94732000       8.78970000       7.35122000      -0.36172000      -0.87037000       0.26471000
H       10.16951000       9.56201000       6.91807000      -0.83748000       0.27907000      -0.04530000
O       10.86488000       4.77582000       9.38317000      -0.21949000       0.08994000       0.63533000
H       11.12129000       4.77498000      10.32303000      -0.06744000      -0.06393000      -0.60132000
H       10.09935000       5.36083000       9.35109000       0.10599000       0.02214000      -0.14682000
O        0.67697000       4.04890000       7.48937000      -0.52464000      -1.28097000       0.96685000
H        0.55987000       4.46396000       8.37694000       0.18746000      -0.07369000      -0.72366000
H        0.45972000       3.08668000       7.64218000       0.63029000       1.56851000      -0.13830000
O        5.07683000      10.52672000       6.71737000      -0.46032000      -0.14392000       0.62433000
H        5.85679000      11.04857000       6.53827000       0.28420000       0.10562000      -0.26065000
H        4.43852000      10.75301000       6.04770000       0.00755000       0.11658000      -0.49443000
O        5.83684000       0.77495000       8.89985000      -0.62430000      -0.57198000       0.28471000
H        5.80787000      -0.11449000       8.50928000       0.25057000       0.48811000      -0.06275000
H        5.07599000       0.81147000       9.51470000       0.81667000       0.12552000      -0.18980000
O        9.22507000       2.17200000       5.56303000      -0.88700000       1.00473000       0.27415000
H       10.08958000       1.83180000       5.43908000       1.17547000      -0.52210000      -0.26686000
H        9.04827000       2.10263000       6.49914000      -0.09910000      -0.04950000       0.34027000
O        5.25458000       9.48697000       2.83100000      -1.00664000       0.11784000       1.30225000
H        5.85053000       9.48630000       2.11282000       1.26538000      -0.06756000      -1.02538000
H        4.39298000       9.39249000       2.43956000      -0.55426000      -0.17261000      -0.33457000
O        1.89337000       7.39790000       5.09865000      -0.15975000      -0.14486000      -0.44443000
H        1.43297000       8.07479000       5.57923000      -0.35681000       0.35605000       0.57364000
H        1.54008000       6.56508000       5.43568000      -0.07520000       0.05402000       0.04513000
O        8.92293000       1.56369000       3.00289000       0.64794000      -1.44790000      -1.24448000
H        8.57465000       2.09481000       3.68774000      -0.28299000       1.04291000       1.32222000
H        8.53905000       0.70832000       3.24068000       0.17279000       0.19673000      -0.20967000
O        7.89516000      10.00883000       4.21330000      -1.60976000       0.41771000       0.77429000
H        8.68719000      10.00883000       3.72012000       1.29920000      -0.37062000      -0.75551000
H        7.98838000       9.44845000       4.98223000       0.37674000      -0.00716000       0.13349000
O        0.10718000       9.38584000       9.03680000      -0.81975000      -0.03576000       0.04126000
H        0.61571000       9.87693000       9.66633000       0.32034000       0.45581000       0.71633000
H        0.77522000       9.06655000       8.45428000       0.68086000      -0.59649000      -0.70119000
O        1.08408000       1.12004000       7.60460000       0.41896000       1.03903000      -0.24965000
H        0.86534000       0.43661000       8.20663000      -0.30376000      -1.02830000       0.91385000
H        0.38086000       1.10018000       6.96604000      -0.36285000      -0.15937000      -0.66315000
O       10.07718000       9.19032000      10.70160000       0.44653000       0.20722000      -0.52719000
H       10.65740000       9.17932000       9.92319000      -0.31247000      -0.24580000       0.22813000
H       10.30985000      10.03181000      11.10624000      -0.17588000      -0.02018000       0.26061000
O        8.50524000       9.82746000       1.48852000       0.38751000      -2.22548000       1.96253000
H        8.08472000      10.61302000       1.29915000      -1.48179000       2.70790000      -0.53456000
H        9.00768000       9.61452000       0.73865000       1.07426000      -0.54878000      -1.52455000
118
Lattice="100.0 0.0 0.0 0.0 100.0 0.0 0.0 0.0 100.0" Properties=species:S:1:pos:R:3:forces:R:3 config_type=reactants_in_water energy=-78177.41647487 pbc="T T T"
C        6.03837000       6.23352000       3.40399000       2.57172000       1.45094000       1.77674000
C        5.45084000       6.29099000       4.81028000       0.43222000       0.57394000       2.14782000
C        6.75708000       6.27457000       5.68788000      -0.66891000      -0.77632000      -4.02310000
H        4.72288000       7.08333000       5.14658000       0.71466000      -0.93570000      -0.76595000
C        7.69386000       5.61918000       4.97091000      -1.51637000       0.80131000       1.13303000
H        6.84410000       6.66373000       6.63881000       0.11475000       0.68222000       1.84746000
C        7.05490000       5.12296000       3.67321000      -0.58588000      -0.49711000       1.23308000
H        8.60803000       5.44614000       5.49081000       0.74687000      -0.59866000      -0.69187000
H        7.73191000       4.91581000       2.86185000       0.06607000      -0.41537000      -0.12303000
H        6.56078000       7.14060000       3.07086000      -0.35576000      -0.09025000       0.18808000
H        5.36508000       5.90873000       2.72181000      -2.29808000      -0.77572000      -2.26359000
C        5.97548000       3.99305000       4.15577000       1.45628000      -0.38813000      -0.41952000
C        4.95875000       4.84416000       4.95194000       1.07008000      -2.02362000       1.26143000
H        4.11025000       4.61273000       4.39748000      -2.21529000       0.31408000      -0.40075000
H        4.86459000       4.38170000       5.97737000      -0.05447000       1.06845000      -0.92040000
C        6.60175000       2.70898000       4.75404000       0.89103000       1.37087000      -0.58549000
H        5.47853000       3.57480000       3.26559000       0.22800000       0.29888000      -0.05057000
O        6.31864000       2.19556000       5.81111000      -0.75115000       0.01662000       0.19577000
C        7.79216000       2.15734000       3.98943000      -0.61487000       0.19079000      -0.90114000
H        7.73412000       2.14445000       2.87526000      -0.47372000      -0.20937000       0.82520000
H        7.96582000       1.18437000       4.42076000       0.59778000      -0.25309000      -0.21301000
H        8.60014000       2.85205000       4.15033000       0.55738000       0.09300000       0.53392000
O       10.24494000      11.44434000       1.69315000      -0.53805000      -1.86188000       1.38868000
H       10.24104000      10.57599000       2.21901000       0.09207000       1.91875000      -1.17789000
H        9.31917000      11.73449000       1.74993000       0.43104000       0.02616000      -0.07251000
O        4.45679000       7.38926000      10.14636000      -0.14402000      -0.56291000      -0.07672000
H        3.86292000       7.45060000       9.39443000       0.00348000       0.13163000      -0.07178000
H        4.35333000       8.19814000      10.64801000       0.29469000       0.29862000       0.15284000
O        1.51981000       3.00534000       1.99247000       0.90882000      -0.91571000       2.34433000
H        0.96323000       2.66957000       1.32691000      -1.05768000      -0.48853000      -1.46579000
H        1.38703000       2.34862000       2.73331000       0.41867000       1.33616000      -1.21417000
O        5.60495000       9.47056000      11.73726000      -0.39418000      -1.69377000       0.15303000
H        6.40947000       9.93052000      11.73462000       1.90754000       0.64759000      -0.06797000
H        4.95653000      10.13916000      11.67119000      -1.49389000       1.13721000       0.11522000
O        2.17783000       8.77713000       7.65743000       0.26468000      -0.10994000      -0.34074000
H        1.43703000       8.87215000       8.23341000      -0.70683000       0.32470000       0.79228000
H        2.16051000       7.83662000       7.41418000       0.30512000       0.11830000      -0.55979000
O        1.53977000       5.30406000       3.92750000       0.35043000      -0.11371000      -1.01980000
H        0.92686000       4.53306000       4.00820000       0.71399000       0.40743000      -0.40248000