22
Lattice="100.0 0.0 0.0 0.0 100.0 0.0 0.0 0.0 100.0" Properties=species:S:1:pos:R:3:forces:R:3 config_type=vacuum energy=-11581.20485257 pbc="T T T"
C       -0.04659000       1.78229000       0.93108000      -0.19773000       0.32884000       0.19881000
C       -0.96399000       0.68942000       1.47995000       0.46195000       1.47805000       2.32731000
C        0.04936000      -0.21566000       2.14341000      -0.34258000      -0.35860000      -1.15313000
H       -1.60032000       1.12283000       2.23082000      -0.95653000      -0.12987000       0.04920000
C        1.14157000      -0.18987000       1.36354000       0.01030000      -0.43618000      -0.15974000
H       -0.20309000      -0.92047000       2.92163000       0.09323000       0.00110000      -0.01412000
C        0.94415000       0.82573000       0.33920000      -0.80260000       0.38713000      -1.45531000
H        1.94947000      -0.90763000       1.33033000       0.04774000       0.16206000       0.29901000
H        1.78095000       1.23373000      -0.20949000       0.00575000      -0.29316000      -0.40335000
H        0.34669000       2.36251000       1.76259000       0.46085000      -0.17438000       0.23591000
H       -0.50774000       2.54475000       0.29587000      -0.07915000      -0.60392000      -0.37322000
C       -0.64451000       0.04179000      -0.87110000       2.37854000       0.22895000       0.82139000
C       -1.61696000       0.04712000       0.28962000      -0.84835000      -0.99185000      -2.03458000
H       -2.53564000       0.56075000      -0.03550000       0.36840000       0.05861000       0.37834000
H       -1.87682000      -0.99619000       0.45196000      -0.13999000       0.03289000       0.37308000
C        0.02281000      -1.22530000      -1.26422000      -0.08730000      -1.66910000       2.18118000
H       -0.79724000       0.72573000      -1.68901000       0.07604000       0.44684000       0.01095000
O       -0.12379000      -2.21225000      -0.52316000       0.08145000       1.02873000      -1.06459000
C        1.02770000      -1.31979000      -2.39571000      -0.18819000       0.14885000      -0.06233000
H        1.80976000      -0.56928000      -2.24380000      -0.22942000       0.08093000      -0.23923000
H        0.49949000      -1.15073000      -3.34525000       0.32853000       0.14118000       0.13480000
H        1.52466000      -2.30868000      -2.39138000      -0.54996000       0.52023000       0.03698000
22
Lattice="100.0 0.0 0.0 0.0 100.0 0.0 0.0 0.0 100.0" Properties=species:S:1:pos:R:3:forces:R:3 config_type=vacuum energy=-11581.94101485 pbc="T T T"
C       -0.16880000       1.90776000       0.53299000      -0.86190000      -0.21119000      -1.07526000
C       -0.97319000       0.98674000       1.42447000      -0.28790000      -1.27705000       0.42811000
C        0.14161000       0.20089000       2.16464000      -2.08829000       2.37268000      -2.20183000
H       -1.81341000       1.38939000       1.98153000       0.33560000       0.27717000       0.33221000
C        1.11970000       0.11433000       1.31593000       1.71814000       0.08490000      -1.03346000
H       -0.03610000      -0.26784000       3.03970000      -0.25302000      -1.47645000       2.70080000
C        0.74291000       0.84243000       0.03021000       2.27703000      -2.03804000      -1.71464000
H        2.00780000      -0.46848000       1.45555000       0.30902000      -0.19194000      -0.08881000
H        1.61288000       1.04954000      -0.74798000      -1.78603000      -0.03171000       1.91025000
H        0.31287000       2.67808000       1.04450000       0.85804000       1.28828000       0.87983000
H       -0.73675000       2.27617000      -0.32120000      -0.25308000       0.41206000       0.25869000
C       -0.34779000      -0.11849000      -0.66712000       0.11682000       1.24278000       0.26917000
C       -1.52921000       0.00201000       0.35757000      -0.69910000      -1.57945000      -0.91837000
H       -2.46854000       0.48688000      -0.03908000       1.05033000      -0.78219000      -0.06006000
H       -1.74354000      -1.10205000       0.64186000       0.09516000       2.16659000       0.16302000
C        0.08865000      -1.51615000      -1.03181000       0.10609000      -0.06154000       0.04192000
H       -0.47641000       0.38769000      -1.61164000      -0.69609000       0.17385000      -0.38375000
O       -0.34914000      -2.45614000      -0.41370000       0.33415000      -0.44091000      -0.42962000
C        1.12821000      -1.65985000      -2.17443000       0.40799000       0.15292000       1.67911000
H        2.02948000      -1.13116000      -1.73034000      -0.78778000      -0.58235000      -0.87587000
H        0.82168000      -1.17562000      -3.10118000      -0.07143000       0.10651000       0.17223000
H        1.37213000      -2.72368000      -2.33925000      -0.15576000       0.58224000       0.08059000
22
Lattice="100.0 0.0 0.0 0.0 100.0 0.0 0.0 0.0 100.0" Properties=species:S:1:pos:R:3:forces:R:3 config_type=vacuum energy=-11580.9944548 pbc="T T T"
C        0.05204000       1.80265000       0.97830000       0.24675000       0.08332000       0.64656000
C       -0.92161000       0.74913000       1.57293000      -0.04448000      -1.36077000      -1.03969000
C        0.10977000      -0.40190000       1.98135000      -0.84359000       2.87597000      -0.65527000
H       -1.72062000       0.96568000       2.25792000       0.15175000       0.51936000       0.55270000
C        1.04926000      -0.32613000       1.04354000      -0.39839000       0.73490000       0.50792000
H        0.01101000      -0.99287000       2.87247000      -0.04883000      -0.48479000      -0.22321000
C        0.66046000       0.75890000      -0.00116000       5.76554000       2.40304000       3.57631000
H        1.72572000      -1.09410000       0.82663000       1.30349000      -0.70206000       0.04805000
H        1.48392000       1.14916000      -0.68195000      -0.83833000      -0.60125000       1.10973000
H        0.79695000       2.09646000       1.75303000      -0.49905000      -0.04206000      -0.71522000
H       -0.35219000       2.71752000       0.49388000      -0.16034000      -0.78971000       0.22083000
C       -0.41226000       0.20046000      -0.66455000      -3.06895000      -1.96831000      -6.21131000
C       -1.58184000       0.18006000       0.19218000      -1.37521000       0.30176000       3.09629000
H       -2.49761000       0.72253000      -0.12202000       0.86589000      -0.04063000       0.06164000
H       -1.85173000      -0.84593000       0.38428000      -0.42207000      -0.25645000       0.06909000
C        0.02128000      -1.23828000      -1.08918000       0.92202000       4.44872000      -2.28400000
H       -0.56220000       0.82190000      -1.55189000      -0.37163000      -0.28170000      -0.37272000
O       -0.22292000      -2.12199000      -0.39084000      -1.56908000      -4.47716000       2.34406000
C        1.01105000      -1.38020000      -2.19617000       0.73145000      -0.34587000      -0.47507000
H        1.59208000      -0.48347000      -2.40998000      -0.21476000       0.16495000       0.17535000
H        0.51579000      -1.65025000      -3.14299000       0.14701000      -0.29587000       0.43479000
H        1.71756000      -2.14599000      -1.82683000      -0.38112000       0.10958000      -0.67784000
22
Lattice="100.0 0.0 0.0 0.0 100.0 0.0 0.0 0.0 100.0" Properties=species:S:1:pos:R:3:forces:R:3 config_type=vacuum energy=-11581.4099535 pbc="T T T"
C        0.14080000       1.91543000       0.96134000      -0.20063000       0.28773000      -0.21474000
C       -0.52442000       1.09892000       2.00667000      -1.14219000       0.58763000       0.51275000
C        0.06496000      -0.09313000       2.10707000       0.14307000       0.77527000      -0.86209000
H       -1.38480000       1.47446000       2.59532000       0.67186000      -0.40647000      -0.52029000
C        1.17506000      -0.13718000       1.15324000       0.13254000       1.04569000       0.07762000
H       -0.32088000      -0.84841000       2.71926000      -0.04632000      -1.17437000       0.74345000
C        1.25987000       1.05578000       0.50972000      -0.02456000      -1.40676000       0.61300000
H        1.84108000      -0.95920000       1.01394000       0.18775000      -0.37194000      -0.02024000
H        2.02990000       1.30510000      -0.18791000       0.10087000       0.28819000      -0.35343000
H        0.46051000       2.85939000       1.38158000       0.17071000       0.46910000      -0.08511000
H       -0.55303000       2.08920000       0.11805000       0.26652000       0.22118000       0.42285000
C       -1.03410000      -0.28653000      -1.11215000       0.07915000       0.54319000      -1.40550000
C       -2.04135000      -0.19244000      -0.26213000      -0.06939000      -1.48377000       1.01679000
H       -2.69566000       0.64494000      -0.27739000      -0.41016000       0.53991000      -0.00045000
H       -2.25440000      -0.98864000       0.49351000       0.34002000       0.79037000      -0.85819000
C       -0.09160000      -1.40759000      -1.21088000      -0.00454000      -2.13261000       1.52399000
H       -0.87238000       0.47190000      -1.88492000      -0.24578000      -0.00332000       0.42587000
O       -0.13285000      -2.32513000      -0.37343000       0.17173000       1.32656000      -1.70010000
C        1.00269000      -1.38986000      -2.28097000      -1.11853000       0.62370000      -0.37086000
H        1.81714000      -1.86905000      -1.81412000       1.17467000      -0.40327000       0.34079000
H        1.23580000      -0.36763000      -2.58189000       0.17298000       0.01764000       0.25448000
H        0.80881000      -1.91222000      -3.23269000      -0.52013000      -0.04829000       0.61925000
22
Lattice="100.0 0.0 0.0 0.0 100.0 0.0 0.0 0.0 100.0" Properties=species:S:1:pos:R:3:forces:R:3 config_type=vacuum energy=-11581.94101485 pbc="T T T"
C       -0.16880000       1.90776000       0.53299000      -0.86190000      -0.21119000      -1.07526000
C       -0.97319000       0.98674000       1.42447000      -0.28790000      -1.27705000       0.42811000
C        0.14161000       0.20089000       2.16464000      -2.08829000       2.37268000      -2.20183000
H       -1.81341000       1.38939000       1.98153000       0.33560000       0.27717000       0.33221000
C        1.11970000       0.11433000       1.31593000       1.71814000       0.08490000      -1.03346000
H       -0.03610000      -0.26784000       3.03970000      -0.25302000      -1.47645000       2.70080000
C        0.74291000       0.84243000       0.03021000       2.27703000      -2.03804000      -1.71464000
H        2.00780000      -0.46848000       1.45555000       0.30902000      -0.19194000      -0.08881000
H        1.61288000       1.04954000      -0.74798000      -1.78603000      -0.03171000       1.91025000
H        0.31287000       2.67808000       1.04450000       0.85804000       1.28828000       0.87983000
H       -0.73675000       2.27617000      -0.32120000      -0.25308000       0.41206000       0.25869000
C       -0.34779000      -0.11849000      -0.66712000       0.11682000       1.24278000       0.26917000
C       -1.52921000       0.00201000       0.35757000      -0.69910000      -1.57945000      -0.91837000
H       -2.46854000       0.48688000      -0.03908000       1.05033000      -0.78219000      -0.06006000
H       -1.74354000      -1.10205000       0.64186000       0.09516000       2.16659000       0.16302000
C        0.08865000      -1.51615000      -1.03181000       0.10609000      -0.06154000       0.04192000
H       -0.47641000       0.38769000      -1.61164000      -0.69609000       0.17385000      -0.38375000
O       -0.34914000      -2.45614000      -0.41370000       0.33415000      -0.44091000      -0.42962000
C        1.12821000      -1.65985000      -2.17443000       0.40799000       0.15292000       1.67911000
H        2.02948000      -1.13116000      -1.73034000      -0.78778000      -0.58235000      -0.87587000
H        0.82168000      -1.17562000      -3.10118000      -0.07143000       0.10651000       0.17223000
H        1.37213000      -2.72368000      -2.33925000      -0.15576000       0.58224000       0.08059000
22
Lattice="100.0 0.0 0.0 0.0 100.0 0.0 0.0 0.0 100.0" Properties=species:S:1:pos:R:3:forces:R:3 config_type=vacuum energy=-11580.9944548 pbc="T T T"
C        0.05204000       1.80265000       0.97830000       0.24675000       0.08332000       0.64656000
C       -0.92161000       0.74913000       1.57293000      -0.04448000      -1.36077000      -1.03969000
C        0.10977000      -0.40190000       1.98135000      -0.84359000       2.87597000      -0.65527000
H       -1.72062000       0.96568000       2.25792000       0.15175000       0.51936000       0.55270000
C        1.04926000      -0.32613000       1.04354000      -0.39839000       0.73490000       0.50792000
H        0.01101000      -0.99287000       2.87247000      -0.04883000      -0.48479000      -0.22321000
C        0.66046000       0.75890000      -0.00116000       5.76554000       2.40304000       3.57631000
H        1.72572000      -1.09410000       0.82663000       1.30349000      -0.70206000       0.04805000
H        1.48392000       1.14916000      -0.68195000      -0.83833000      -0.60125000       1.10973000
H        0.79695000       2.09646000       1.75303000      -0.49905000      -0.04206000      -0.71522000
H       -0.35219000       2.71752000       0.49388000      -0.16034000      -0.78971000       0.22083000
C       -0.41226000       0.20046000      -0.66455000      -3.06895000      -1.96831000      -6.21131000
C       -1.58184000       0.18006000       0.19218000      -1.37521000       0.30176000       3.09629000
H       -2.49761000       0.72253000      -0.12202000       0.86589000      -0.04063000       0.06164000
H       -1.85173000      -0.84593000       0.38428000      -0.42207000      -0.25645000       0.06909000
C        0.02128000      -1.23828000      -1.08918000       0.92202000       4.44872000      -2.28400000
H       -0.56220000       0.82190000      -1.55189000      -0.37163000      -0.28170000      -0.37272000
O       -0.22292000      -2.12199000      -0.39084000      -1.56908000      -4.47716000       2.34406000
C        1.01105000      -1.38020000      -2.19617000       0.73145000      -0.34587000      -0.47507000
H        1.59208000      -0.48347000      -2.40998000      -0.21476000       0.16495000       0.17535000
H        0.51579000      -1.65025000      -3.14299000       0.14701000      -0.29587000       0.43479000
H        1.71756000      -2.14599000      -1.82683000      -0.38112000       0.10958000      -0.67784000
22
Lattice="100.0 0.0 0.0 0.0 100.0 0.0 0.0 0.0 100.0" Properties=species:S:1:pos:R:3:forces:R:3 config_type=vacuum energy=-11580.50706075 pbc="T T T"
C       -0.12027000       1.81047000       0.91412000       1.04000000       0.28650000      -0.24532000
C       -0.89206000       0.76843000       1.69938000      -1.29258000       2.59919000      -1.28884000
C       -0.02689000      -0.18187000       2.04033000       2.77046000      -2.06455000       0.69222000
H       -1.76680000       1.04541000       2.24610000      -0.39222000      -0.06481000       0.25136000
C        1.17559000      -0.06895000       1.27180000      -0.39232000      -2.63767000       1.55436000
H       -0.21927000      -0.99354000       2.71602000      -0.08031000      -0.14998000       0.14579000
C        1.02684000       0.90932000       0.39121000      -1.05061000       3.12887000      -1.03963000
H        1.94542000      -0.83676000       1.21403000      -0.20247000       0.24832000       0.27051000
H        1.75495000       1.27547000      -0.31275000       0.08249000      -0.05243000      -0.09193000
H        0.34274000       2.52730000       1.63299000      -0.23242000      -0.37501000      -0.38800000
H       -0.66613000       2.39513000       0.15352000       0.23679000      -0.42174000       0.43081000
C       -0.62685000      -0.08153000      -0.93939000      -1.77383000       2.28288000       0.33518000
C       -1.68513000       0.02915000      -0.02272000       0.45044000      -3.88874000       0.32414000
H       -2.47933000       0.70491000      -0.13198000      -0.58804000       1.16329000      -0.21485000
H       -2.04879000      -0.97349000       0.41156000       0.63264000       1.66602000      -0.71932000
C        0.05863000      -1.31659000      -1.15100000       0.82171000       1.64956000      -1.60612000
H       -0.53228000       0.73837000      -1.65008000       0.29232000      -0.35687000      -0.02408000
O       -0.08664000      -2.24385000      -0.43952000      -0.64282000      -3.05464000       2.48475000
C        1.01129000      -1.38389000      -2.28811000       1.20377000       1.75377000       0.08405000
H        1.72938000      -0.53146000      -2.27691000      -0.63747000      -0.32875000       0.03059000
H        0.49561000      -1.34496000      -3.20862000      -0.73165000       0.15447000      -1.11505000
H        1.60999000      -2.24709000      -2.27000000       0.52528000      -1.30658000       0.22575000
22
Lattice="100.0 0.0 0.0 0.0 100.0 0.0 0.0 0.0 100.0" Properties=species:S:1:pos:R:3:forces:R:3 config_type=vacuum energy=-11580.59345095 pbc="T T T"
C       -0.05261000       1.81093000       0.86675000      -2.63016000       0.37585000       0.94912000
C       -0.90184000       0.79822000       1.69188000       2.37013000       0.11549000       0.19667000
C        0.05222000      -0.15444000       2.12334000      -1.74447000      -0.06955000      -0.62859000
H       -1.86339000       0.99107000       2.11250000      -0.11172000       0.27945000       0.59923000
C        1.18761000      -0.08520000       1.29218000       0.07933000       0.26665000      -0.14430000
H       -0.22671000      -0.99990000       2.74115000       0.27141000       0.15650000       0.10486000
C        1.00822000       0.96915000       0.43389000       1.91774000      -1.18491000      -0.64666000
H        1.96852000      -0.82403000       1.19638000      -0.07383000       0.01012000       0.22337000
H        1.64035000       1.28438000      -0.36579000       0.65574000      -0.00832000      -0.18302000
H        0.34688000       2.61874000       1.48426000      -0.14261000      -0.02916000       0.26199000
H       -0.59852000       2.23787000       0.04243000      -0.17047000       0.46819000      -0.06241000
C       -0.68868000      -0.06379000      -0.94733000      -0.59049000      -0.06373000       0.11828000
C       -1.74958000      -0.05101000      -0.05806000       0.58500000      -0.10705000      -0.14496000
H       -2.35083000       0.83771000       0.02935000      -0.45925000      -0.22782000      -0.50930000
H       -2.15429000      -0.99154000       0.34007000       0.38861000       0.57595000      -0.17137000
C        0.04851000      -1.27581000      -1.16641000       0.16455000      -3.32564000       1.09759000
H       -0.46765000       0.74192000      -1.61433000      -0.09226000       0.43175000      -0.17414000
O       -0.10268000      -2.26903000      -0.42164000      -0.10800000       1.59027000      -0.69195000
C        1.02504000      -1.45122000      -2.30968000       0.46701000       0.98318000       0.89254000
H        1.80673000      -0.66580000      -2.20736000      -0.31707000      -0.54823000      -0.27088000
H        0.48981000      -1.28591000      -3.22199000      -0.18865000       0.14826000      -0.74291000
H        1.46174000      -2.45768000      -2.26616000      -0.16328000       0.49503000      -0.01681000
